
     Program PWSCF v.7.1 starts on 21Jul2025 at 15:49:59 

     This program is part of the open-source Quantum ESPRESSO suite
     for quantum simulation of materials; please cite
         "P. Giannozzi et al., J. Phys.:Condens. Matter 21 395502 (2009);
         "P. Giannozzi et al., J. Phys.:Condens. Matter 29 465901 (2017);
         "P. Giannozzi et al., J. Chem. Phys. 152 154105 (2020);
          URL http://www.quantum-espresso.org", 
     in publications or presentations arising from this work. More details at
     http://www.quantum-espresso.org/quote

     Parallel version (MPI), running on    16 processors

     MPI processes distributed on     1 nodes
     124486 MiB available memory on the printing compute node when the environment starts
 
     Reading input from pw.al_bulk.vc-relax.in

     Current dimensions of program PWSCF are:
     Max number of different atomic species (ntypx) = 10
     Max number of k-points (npk) =  40000
     Max angular momentum in pseudopotentials (lmaxx) =  4
     file Al.pbe-n-kjpaw_psl.1.0.0.UPF: wavefunction(s)  3S 3P renormalized
     Found identity + ( -0.5000 -0.5000  0.0000) symmetry
     This is a supercell, fractional translations are disabled
 
     R & G space division:  proc/nbgrp/npool/nimage =      16
     Subspace diagonalization in iterative solution of the eigenvalue problem:
     a serial algorithm will be used

 
     Parallelization info
     --------------------
     sticks:   dense  smooth     PW     G-vecs:    dense   smooth      PW
     Min         116      46     14                 3764      952     162
     Max         117      47     15                 3769      955     163
     Sum        1861     749    233                60245    15275    2601
 
     Using Slab Decomposition
 


     bravais-lattice index     =            1
     lattice parameter (alat)  =       7.6325  a.u.
     unit-cell volume          =     444.6266 (a.u.)^3
     number of atoms/cell      =            4
     number of atomic types    =            1
     number of electrons       =        12.00
     number of Kohn-Sham states=           10
     kinetic-energy cutoff     =      40.0000  Ry
     charge density cutoff     =     400.0000  Ry
     scf convergence threshold =      1.0E-08
     mixing beta               =       0.7000
     number of iterations used =            8  plain     mixing
     energy convergence thresh.=      1.0E-07
     force convergence thresh. =      1.0E-06
     press convergence thresh. =      5.0E-01
     Exchange-correlation= SLA  PW   PBX  PBC
                           (   1   4   3   4   0   0   0)
     nstep                     =          200


     celldm(1)=   7.632471  celldm(2)=   0.000000  celldm(3)=   0.000000
     celldm(4)=   0.000000  celldm(5)=   0.000000  celldm(6)=   0.000000

     crystal axes: (cart. coord. in units of alat)
               a(1) = (   1.000000   0.000000   0.000000 )  
               a(2) = (   0.000000   1.000000   0.000000 )  
               a(3) = (   0.000000   0.000000   1.000000 )  

     reciprocal axes: (cart. coord. in units 2 pi/alat)
               b(1) = (  1.000000  0.000000  0.000000 )  
               b(2) = (  0.000000  1.000000  0.000000 )  
               b(3) = (  0.000000  0.000000  1.000000 )  


     PseudoPot. # 1 for Al read from file:
     ./Al.pbe-n-kjpaw_psl.1.0.0.UPF
     MD5 check sum: 924dd5e61bb65af96a896c5b13e45148
     Pseudo is Projector augmented-wave + core cor, Zval =  3.0
     Generated using &quot;atomic&quot; code by A. Dal Corso  v.6.3
     Shape of augmentation charge: PSQ
     Using radial grid of 1135 points,  6 beta functions with: 
                l(1) =   0
                l(2) =   0
                l(3) =   1
                l(4) =   1
                l(5) =   2
                l(6) =   2
     Q(r) pseudized with 0 coefficients 


     atomic species   valence    mass     pseudopotential
        Al             3.00    26.98154     Al( 1.00)

     48 Sym. Ops., with inversion, found



   Cartesian axes

     site n.     atom                  positions (alat units)
         1           Al  tau(   1) = (   0.0000000   0.0000000   0.0000000  )
         2           Al  tau(   2) = (   0.5000000   0.5000000   0.0000000  )
         3           Al  tau(   3) = (   0.5000000   0.0000000   0.5000000  )
         4           Al  tau(   4) = (   0.0000000   0.5000000   0.5000000  )

     number of k points=    84  Methfessel-Paxton smearing, width (Ry)=  0.0200
                       cart. coord. in units 2pi/alat
        k(    1) = (   0.0000000   0.0000000   0.0000000), wk =   0.0011574
        k(    2) = (   0.0000000   0.0000000   0.0833333), wk =   0.0069444
        k(    3) = (   0.0000000   0.0000000   0.1666667), wk =   0.0069444
        k(    4) = (   0.0000000   0.0000000   0.2500000), wk =   0.0069444
        k(    5) = (   0.0000000   0.0000000   0.3333333), wk =   0.0069444
        k(    6) = (   0.0000000   0.0000000   0.4166667), wk =   0.0069444
        k(    7) = (   0.0000000   0.0000000  -0.5000000), wk =   0.0034722
        k(    8) = (   0.0000000   0.0833333   0.0833333), wk =   0.0138889
        k(    9) = (   0.0000000   0.0833333   0.1666667), wk =   0.0277778
        k(   10) = (   0.0000000   0.0833333   0.2500000), wk =   0.0277778
        k(   11) = (   0.0000000   0.0833333   0.3333333), wk =   0.0277778
        k(   12) = (   0.0000000   0.0833333   0.4166667), wk =   0.0277778
        k(   13) = (   0.0000000   0.0833333  -0.5000000), wk =   0.0138889
        k(   14) = (   0.0000000   0.1666667   0.1666667), wk =   0.0138889
        k(   15) = (   0.0000000   0.1666667   0.2500000), wk =   0.0277778
        k(   16) = (   0.0000000   0.1666667   0.3333333), wk =   0.0277778
        k(   17) = (   0.0000000   0.1666667   0.4166667), wk =   0.0277778
        k(   18) = (   0.0000000   0.1666667  -0.5000000), wk =   0.0138889
        k(   19) = (   0.0000000   0.2500000   0.2500000), wk =   0.0138889
        k(   20) = (   0.0000000   0.2500000   0.3333333), wk =   0.0277778
        k(   21) = (   0.0000000   0.2500000   0.4166667), wk =   0.0277778
        k(   22) = (   0.0000000   0.2500000  -0.5000000), wk =   0.0138889
        k(   23) = (   0.0000000   0.3333333   0.3333333), wk =   0.0138889
        k(   24) = (   0.0000000   0.3333333   0.4166667), wk =   0.0277778
        k(   25) = (   0.0000000   0.3333333  -0.5000000), wk =   0.0138889
        k(   26) = (   0.0000000   0.4166667   0.4166667), wk =   0.0138889
        k(   27) = (   0.0000000   0.4166667  -0.5000000), wk =   0.0138889
        k(   28) = (   0.0000000  -0.5000000  -0.5000000), wk =   0.0034722
        k(   29) = (   0.0833333   0.0833333   0.0833333), wk =   0.0092593
        k(   30) = (   0.0833333   0.0833333   0.1666667), wk =   0.0277778
        k(   31) = (   0.0833333   0.0833333   0.2500000), wk =   0.0277778
        k(   32) = (   0.0833333   0.0833333   0.3333333), wk =   0.0277778
        k(   33) = (   0.0833333   0.0833333   0.4166667), wk =   0.0277778
        k(   34) = (   0.0833333   0.0833333  -0.5000000), wk =   0.0138889
        k(   35) = (   0.0833333   0.1666667   0.1666667), wk =   0.0277778
        k(   36) = (   0.0833333   0.1666667   0.2500000), wk =   0.0555556
        k(   37) = (   0.0833333   0.1666667   0.3333333), wk =   0.0555556
        k(   38) = (   0.0833333   0.1666667   0.4166667), wk =   0.0555556
        k(   39) = (   0.0833333   0.1666667  -0.5000000), wk =   0.0277778
        k(   40) = (   0.0833333   0.2500000   0.2500000), wk =   0.0277778
        k(   41) = (   0.0833333   0.2500000   0.3333333), wk =   0.0555556
        k(   42) = (   0.0833333   0.2500000   0.4166667), wk =   0.0555556
        k(   43) = (   0.0833333   0.2500000  -0.5000000), wk =   0.0277778
        k(   44) = (   0.0833333   0.3333333   0.3333333), wk =   0.0277778
        k(   45) = (   0.0833333   0.3333333   0.4166667), wk =   0.0555556
        k(   46) = (   0.0833333   0.3333333  -0.5000000), wk =   0.0277778
        k(   47) = (   0.0833333   0.4166667   0.4166667), wk =   0.0277778
        k(   48) = (   0.0833333   0.4166667  -0.5000000), wk =   0.0277778
        k(   49) = (   0.0833333  -0.5000000  -0.5000000), wk =   0.0069444
        k(   50) = (   0.1666667   0.1666667   0.1666667), wk =   0.0092593
        k(   51) = (   0.1666667   0.1666667   0.2500000), wk =   0.0277778
        k(   52) = (   0.1666667   0.1666667   0.3333333), wk =   0.0277778
        k(   53) = (   0.1666667   0.1666667   0.4166667), wk =   0.0277778
        k(   54) = (   0.1666667   0.1666667  -0.5000000), wk =   0.0138889
        k(   55) = (   0.1666667   0.2500000   0.2500000), wk =   0.0277778
        k(   56) = (   0.1666667   0.2500000   0.3333333), wk =   0.0555556
        k(   57) = (   0.1666667   0.2500000   0.4166667), wk =   0.0555556
        k(   58) = (   0.1666667   0.2500000  -0.5000000), wk =   0.0277778
        k(   59) = (   0.1666667   0.3333333   0.3333333), wk =   0.0277778
        k(   60) = (   0.1666667   0.3333333   0.4166667), wk =   0.0555556
        k(   61) = (   0.1666667   0.3333333  -0.5000000), wk =   0.0277778
        k(   62) = (   0.1666667   0.4166667   0.4166667), wk =   0.0277778
        k(   63) = (   0.1666667   0.4166667  -0.5000000), wk =   0.0277778
        k(   64) = (   0.1666667  -0.5000000  -0.5000000), wk =   0.0069444
        k(   65) = (   0.2500000   0.2500000   0.2500000), wk =   0.0092593
        k(   66) = (   0.2500000   0.2500000   0.3333333), wk =   0.0277778
        k(   67) = (   0.2500000   0.2500000   0.4166667), wk =   0.0277778
        k(   68) = (   0.2500000   0.2500000  -0.5000000), wk =   0.0138889
        k(   69) = (   0.2500000   0.3333333   0.3333333), wk =   0.0277778
        k(   70) = (   0.2500000   0.3333333   0.4166667), wk =   0.0555556
        k(   71) = (   0.2500000   0.3333333  -0.5000000), wk =   0.0277778
        k(   72) = (   0.2500000   0.4166667   0.4166667), wk =   0.0277778
        k(   73) = (   0.2500000   0.4166667  -0.5000000), wk =   0.0277778
        k(   74) = (   0.2500000  -0.5000000  -0.5000000), wk =   0.0069444
        k(   75) = (   0.3333333   0.3333333   0.3333333), wk =   0.0092593
        k(   76) = (   0.3333333   0.3333333   0.4166667), wk =   0.0277778
        k(   77) = (   0.3333333   0.3333333  -0.5000000), wk =   0.0138889
        k(   78) = (   0.3333333   0.4166667   0.4166667), wk =   0.0277778
        k(   79) = (   0.3333333   0.4166667  -0.5000000), wk =   0.0277778
        k(   80) = (   0.3333333  -0.5000000  -0.5000000), wk =   0.0069444
        k(   81) = (   0.4166667   0.4166667   0.4166667), wk =   0.0092593
        k(   82) = (   0.4166667   0.4166667  -0.5000000), wk =   0.0138889
        k(   83) = (   0.4166667  -0.5000000  -0.5000000), wk =   0.0069444
        k(   84) = (  -0.5000000  -0.5000000  -0.5000000), wk =   0.0011574

     Dense  grid:    60245 G-vectors     FFT dimensions: (  50,  50,  50)

     Smooth grid:    15275 G-vectors     FFT dimensions: (  32,  32,  32)

     Estimated max dynamical RAM per process >      20.27 MB

     Estimated total dynamical RAM >     324.29 MB

     Initial potential from superposition of free atoms

     starting charge      11.9908, renormalised to      12.0000
     Starting wfcs are   16 randomized atomic wfcs
     Checking if some PAW data can be deallocated... 

     total cpu time spent up to now is        0.6 secs

     Self-consistent Calculation

     iteration #  1     ecut=    40.00 Ry     beta= 0.70
     Davidson diagonalization with overlap
     ethr =  1.00E-02,  avg # of iterations =  3.7

     Threshold (ethr) on eigenvalues was too large:
     Diagonalizing with lowered threshold

     Davidson diagonalization with overlap
     ethr =  1.73E-04,  avg # of iterations =  4.5

     total cpu time spent up to now is        1.4 secs

     total energy              =    -158.01051543 Ry
     estimated scf accuracy    <       0.02170831 Ry

     iteration #  2     ecut=    40.00 Ry     beta= 0.70
     Davidson diagonalization with overlap
     ethr =  1.81E-04,  avg # of iterations =  1.0

     total cpu time spent up to now is        1.6 secs

     total energy              =    -158.01040667 Ry
     estimated scf accuracy    <       0.00164129 Ry

     iteration #  3     ecut=    40.00 Ry     beta= 0.70
     Davidson diagonalization with overlap
     ethr =  1.37E-05,  avg # of iterations =  3.1

     total cpu time spent up to now is        2.0 secs

     total energy              =    -158.01048644 Ry
     estimated scf accuracy    <       0.00000276 Ry

     iteration #  4     ecut=    40.00 Ry     beta= 0.70
     Davidson diagonalization with overlap
     c_bands:  1 eigenvalues not converged
     ethr =  2.30E-08,  avg # of iterations =  7.1

     total cpu time spent up to now is        2.5 secs

     total energy              =    -158.01050477 Ry
     estimated scf accuracy    <       0.00000061 Ry

     iteration #  5     ecut=    40.00 Ry     beta= 0.70
     Davidson diagonalization with overlap
     ethr =  5.11E-09,  avg # of iterations =  1.9

     total cpu time spent up to now is        2.9 secs

     End of self-consistent calculation

          k = 0.0000 0.0000 0.0000 (  1935 PWs)   bands (ev):

    -3.2268   4.9944   4.9944   4.9944   6.3221   6.3221   6.3221  13.5317
    13.5323  13.5323

          k = 0.0000 0.0000 0.0833 (  1895 PWs)   bands (ev):

    -3.1637   4.1258   5.0520   5.0520   6.3830   6.3830   7.2998  12.0055
    12.0058  13.0950

          k = 0.0000 0.0000 0.1667 (  1887 PWs)   bands (ev):

    -2.9748   2.9204   5.2250   5.2250   6.5649   6.5649   8.8324  10.7880
    10.7881  12.1938

          k = 0.0000 0.0000 0.2500 (  1891 PWs)   bands (ev):

    -2.6604   1.7833   5.5136   5.5136   6.8644   6.8644   9.6845   9.6845
    10.5145  11.2152

          k = 0.0000 0.0000 0.3333 (  1916 PWs)   bands (ev):

    -2.2214   0.7497   5.9178   5.9178   7.2727   7.2728   8.6975   8.6975
    10.2880  10.2880

          k = 0.0000 0.0000 0.4167 (  1908 PWs)   bands (ev):

    -1.6591  -0.1711   6.4380   6.4380   7.7576   7.7576   7.8276   7.8276
     9.4827   9.4827

          k = 0.0000 0.0000-0.5000 (  1888 PWs)   bands (ev):

    -0.9751  -0.9750   7.0744   7.0744   7.0745   7.0745   8.0899   8.0900
     9.0423   9.0424

          k = 0.0000 0.0833 0.0833 (  1895 PWs)   bands (ev):

    -3.1007   4.1851   4.1851   5.1097   6.4436   7.3588   7.3588  11.1561
    12.0640  12.0640

          k = 0.0000 0.0833 0.1667 (  1888 PWs)   bands (ev):

    -2.9118   2.9806   4.3627   5.2827   6.6239   7.5350   8.8896  10.0008
    10.8463  12.2512

          k = 0.0000 0.0833 0.2500 (  1905 PWs)   bands (ev):

    -2.5976   1.8441   4.6583   5.5713   6.9177   7.8246   8.9213   9.7426
    10.5685  11.2768

          k = 0.0000 0.0833 0.3333 (  1911 PWs)   bands (ev):

    -2.1589   0.8110   5.0711   5.9755   7.2800   7.9907   8.2143   8.7556
    10.3604  11.1499

          k = 0.0000 0.0833 0.4167 (  1902 PWs)   bands (ev):

    -1.5968  -0.1095   5.5995   6.4958   6.9700   7.8855   7.9463   8.6216
     9.6246  10.3174

          k = 0.0000 0.0833-0.5000 (  1900 PWs)   bands (ev):

    -0.9131  -0.9129   6.2398   6.2399   7.1323   7.1324   8.4817   8.4818
     9.6522   9.6523

          k = 0.0000 0.1667 0.1667 (  1893 PWs)   bands (ev):

    -2.7232   3.1609   3.1609   5.4558   6.7966   8.8672   9.0591   9.0591
    11.0209  11.0209

          k = 0.0000 0.1667 0.2500 (  1900 PWs)   bands (ev):

    -2.4094   2.0263   3.4610   5.7445   7.0381   7.8407   9.3309   9.9170
    10.7243  11.4665

          k = 0.0000 0.1667 0.3333 (  1898 PWs)   bands (ev):

    -1.9713   0.9947   3.8800   6.1489   6.6674   7.6421   8.9297   9.6393
    10.6271  11.7189

          k = 0.0000 0.1667 0.4167 (  1890 PWs)   bands (ev):

    -1.4100   0.0754   4.4165   5.8291   6.6693   8.0594   8.1326   9.4317
    10.4987  11.7660

          k = 0.0000 0.1667-0.5000 (  1896 PWs)   bands (ev):

    -0.7271  -0.7270   5.0681   5.0683   7.3060   7.3061   8.7589   8.7590
    11.0462  11.0463

          k = 0.0000 0.2500 0.2500 (  1893 PWs)   bands (ev):

    -2.0963   2.3294   2.3294   6.0333   6.5589   7.5302  10.2075  10.2075
    10.9213  10.9214

          k = 0.0000 0.2500 0.3333 (  1902 PWs)   bands (ev):

    -1.6591   1.3002   2.7527   5.6075   6.4379   7.9070   9.2199  10.6030
    10.6141  11.6230

          k = 0.0000 0.2500 0.4167 (  1894 PWs)   bands (ev):

    -1.0991   0.3830   3.2950   4.7276   6.9586   8.3494   8.4358   9.8223
    11.1368  12.0603

          k = 0.0000 0.2500-0.5000 (  1914 PWs)   bands (ev):

    -0.4177  -0.4176   3.9542   3.9543   7.5956   7.5958   9.0802   9.0803
    11.7752  11.7756

          k = 0.0000 0.3333 0.3333 (  1903 PWs)   bands (ev):

    -1.2233   1.7269   1.7269   4.6122   6.8429   8.3212   9.6263   9.6263
    11.0981  11.0984

          k = 0.0000 0.3333 0.4167 (  1906 PWs)   bands (ev):

    -0.6650   0.8126   2.2736   3.7195   7.3639   8.7554   8.8567  10.1488
    10.2573  11.6381

          k = 0.0000 0.3333-0.5000 (  1896 PWs)   bands (ev):

     0.0143   0.0144   2.9386   2.9387   8.0013   8.0014   9.5049   9.5050
    10.7874  10.7875

          k = 0.0000 0.4167 0.4167 (  1913 PWs)   bands (ev):

    -0.1088   1.3630   1.3630   2.8192   7.8854   9.2776   9.2776   9.3928
    10.7915  10.7920

          k = 0.0000 0.4167-0.5000 (  1910 PWs)   bands (ev):

     0.5678   0.5679   2.0325   2.0326   8.5231   8.5233   9.9161   9.9163
    10.0400  10.0402

          k = 0.0000-0.5000-0.5000 (  1924 PWs)   bands (ev):

     1.2412   1.2413   1.2413   1.2414   9.1613   9.1614   9.1615   9.1616
    10.6840  10.6840

          k = 0.0833 0.0833 0.0833 (  1896 PWs)   bands (ev):

    -3.0377   4.2443   4.2443   4.2443   7.4174   7.4174   7.4174  11.2148
    11.2149  11.2149

          k = 0.0833 0.0833 0.1667 (  1893 PWs)   bands (ev):

    -2.8489   3.0407   4.4218   4.4218   7.5912   7.5912   8.9453  10.0613
    10.0614  11.3916

          k = 0.0833 0.0833 0.2500 (  1904 PWs)   bands (ev):

    -2.5348   1.9049   4.7172   4.7172   7.8670   7.8670   8.9919   8.9919
    10.6145  11.6921

          k = 0.0833 0.0833 0.3333 (  1901 PWs)   bands (ev):

    -2.0963   0.8723   5.1293   5.1293   7.8776   7.8776   8.4017   8.4017
    11.2126  11.2126

          k = 0.0833 0.0833 0.4167 (  1907 PWs)   bands (ev):

    -1.5345  -0.0478   5.6551   5.6552   7.0726   7.0726   8.8310   8.8311
    10.3959  10.3960

          k = 0.0833 0.0833-0.5000 (  1912 PWs)   bands (ev):

    -0.8511  -0.8509   6.1967   6.1968   6.4215   6.4217   9.2032   9.2033
     9.9095   9.9096

          k = 0.0833 0.1667 0.1667 (  1895 PWs)   bands (ev):

    -2.6604   3.2210   3.2210   4.5990   7.7482   8.9398   9.1038   9.1039
    10.2496  10.2497

          k = 0.0833 0.1667 0.2500 (  1905 PWs)   bands (ev):

    -2.3467   2.0870   3.5209   4.8934   7.6783   8.2187   9.0406   9.5102
    10.4335  10.8850

          k = 0.0833 0.1667 0.3333 (  1910 PWs)   bands (ev):

    -1.9088   1.0558   3.9395   5.3021   6.7851   8.1230   8.5375   9.8232
    10.9021  11.4097

          k = 0.0833 0.1667 0.4167 (  1900 PWs)   bands (ev):

    -1.3477   0.1370   4.4753   5.7438   6.0020   7.2564   9.0481  10.1225
    10.7751  11.4314

          k = 0.0833 0.1667-0.5000 (  1910 PWs)   bands (ev):

    -0.6652  -0.6651   5.1234   5.1235   6.5018   6.5019   9.6554   9.6555
    11.1231  11.1233

          k = 0.0833 0.2500 0.2500 (  1903 PWs)   bands (ev):

    -2.0338   2.3900   2.3900   5.1842   6.6794   8.4264   9.4032   9.4033
    11.0931  11.0931

          k = 0.0833 0.2500 0.3333 (  1907 PWs)   bands (ev):

    -1.5968   1.3613   2.8131   5.5128   5.7777   8.4246   8.8293   9.8202
    11.2898  11.8888

          k = 0.0833 0.2500 0.4167 (  1899 PWs)   bands (ev):

    -1.0370   0.4445   3.3549   4.7830   6.1515   7.5518   9.3538  10.3470
    10.7082  11.7400

          k = 0.0833 0.2500-0.5000 (  1900 PWs)   bands (ev):

    -0.3559  -0.3558   4.0133   4.0135   6.7922   6.7923   9.9875   9.9876
    10.9871  10.9872

          k = 0.0833 0.3333 0.3333 (  1894 PWs)   bands (ev):

    -1.1612   1.7878   1.7878   4.6678   6.0341   8.8370   8.8370   9.2420
    11.9742  11.9749

          k = 0.0833 0.3333 0.4167 (  1904 PWs)   bands (ev):

    -0.6031   0.8739   2.3342   3.7788   6.5583   7.9632   9.3640   9.7701
    10.7611  11.1508

          k = 0.0833 0.3333-0.5000 (  1892 PWs)   bands (ev):

     0.0759   0.0760   2.9988   2.9989   7.2027   7.2028  10.0056  10.0057
    10.4090  10.4092

          k = 0.0833 0.4167 0.4167 (  1916 PWs)   bands (ev):

    -0.0472   1.4240   1.4240   2.8795   7.0859   8.4906   8.4907   9.8911
    10.2989  11.6816

          k = 0.0833 0.4167-0.5000 (  1906 PWs)   bands (ev):

     0.6292   0.6293   2.0932   2.0934   7.7306   7.7307   9.1336   9.1337
    10.9378  10.9379

          k = 0.0833-0.5000-0.5000 (  1908 PWs)   bands (ev):

     1.3023   1.3024   1.3024   1.3025   8.3745   8.3747   8.3747   8.3748
    11.5746  11.5748

          k = 0.1667 0.1667 0.1667 (  1905 PWs)   bands (ev):

    -2.4721   3.4010   3.4010   3.4010   8.9519   8.9519   8.9519   9.4356
     9.4356   9.4356

          k = 0.1667 0.1667 0.2500 (  1905 PWs)   bands (ev):

    -2.1589   2.2689   3.7003   3.7003   7.9524   7.9524   9.3388   9.6387
     9.6387  11.0150

          k = 0.1667 0.1667 0.3333 (  1896 PWs)   bands (ev):

    -1.7215   1.2392   4.1177   4.1177   6.9731   6.9731   9.7591  10.0305
    10.0305  12.8225

          k = 0.1667 0.1667 0.4167 (  1898 PWs)   bands (ev):

    -1.1612   0.3216   4.6489   4.6490   6.0993   6.0994  10.2872  10.5244
    10.5245  12.0217

          k = 0.1667 0.1667-0.5000 (  1918 PWs)   bands (ev):

    -0.4796  -0.4794   5.1789   5.1791   5.4545   5.4546  10.9254  10.9279
    10.9280  11.5163

          k = 0.1667 0.2500 0.2500 (  1902 PWs)   bands (ev):

    -1.8464   2.5714   2.5714   3.9983   6.8684   8.2584   8.2584   9.9255
    11.2933  11.2933

          k = 0.1667 0.2500 0.3333 (  1889 PWs)   bands (ev):

    -1.4100   1.5442   2.9938   4.4111   5.8793   7.2710   8.6733  10.3306
    11.4685  11.6726

          k = 0.1667 0.2500 0.4167 (  1902 PWs)   bands (ev):

    -0.8509   0.6287   3.5343   4.8323   5.1066   6.3916   9.2022  10.6016
    10.8459  11.9732

          k = 0.1667 0.2500-0.5000 (  1902 PWs)   bands (ev):

    -0.1707  -0.1706   4.1882   4.1883   5.6287   5.6288   9.8453   9.8454
    11.4554  11.4555

          k = 0.1667 0.3333 0.3333 (  1902 PWs)   bands (ev):

    -0.9749   1.9702   1.9702   4.7163   4.9888   7.6849   7.6849  10.4907
    10.7406  13.2505

          k = 0.1667 0.3333 0.4167 (  1900 PWs)   bands (ev):

    -0.4175   1.0575   2.5158   3.9543   5.3917   6.8049   8.2150   9.6199
    11.2611  12.6039

          k = 0.1667 0.3333-0.5000 (  1888 PWs)   bands (ev):

     0.2606   0.2607   3.1789   3.1790   6.0385   6.0386   8.8604   8.8605
    11.8872  11.8873

          k = 0.1667 0.4167 0.4167 (  1900 PWs)   bands (ev):

     0.1377   1.6070   1.6070   3.0598   5.9204   7.3361   7.3361   8.7457
    11.7832  13.1396

          k = 0.1667 0.4167-0.5000 (  1900 PWs)   bands (ev):

     0.8132   0.8133   2.2752   2.2753   6.5701   6.5702   7.9835   7.9837
    12.4117  12.4118

          k = 0.1667-0.5000-0.5000 (  1880 PWs)   bands (ev):

     1.4854   1.4855   1.4855   1.4857   7.2191   7.2193   7.2193   7.2194
    13.0393  13.0393

          k = 0.2500 0.2500 0.2500 (  1899 PWs)   bands (ev):

    -1.5345   2.8732   2.8732   2.8732   7.1668   7.1669   7.1669  11.3675
    11.5866  11.5866

          k = 0.2500 0.2500 0.3333 (  1894 PWs)   bands (ev):

    -1.0991   1.8486   3.2941   3.2941   6.1723   6.1724   7.5813  10.3896
    11.9859  11.9861

          k = 0.2500 0.2500 0.4167 (  1898 PWs)   bands (ev):

    -0.5412   0.9352   3.8300   3.8300   5.2897   5.2898   8.1121   9.5183
    12.4808  12.4808

          k = 0.2500 0.2500-0.5000 (  1894 PWs)   bands (ev):

     0.1375   0.1376   4.3691   4.3693   4.6346   4.6348   8.7582   8.7584
    13.3883  13.3888

          k = 0.2500 0.3333 0.3333 (  1898 PWs)   bands (ev):

    -0.6650   2.2736   2.2736   3.7104   5.1746   6.5867   6.5868   9.4071
    12.3932  13.7436

          k = 0.2500 0.3333 0.4167 (  1895 PWs)   bands (ev):

    -0.1088   1.3631   2.8175   4.1367   4.3946   5.7013   7.1192   8.5317
    12.9034  14.0539

          k = 0.2500 0.3333-0.5000 (  1894 PWs)   bands (ev):

     0.5679   0.5680   3.4761   3.4762   4.9327   4.9328   7.7681   7.7682
    13.5061  13.5063

          k = 0.2500 0.4167 0.4167 (  1892 PWs)   bands (ev):

     0.4453   1.9113   1.9113   3.3575   4.8133   6.2349   6.2349   7.6527
    13.4185  14.7269

          k = 0.2500 0.4167-0.5000 (  1896 PWs)   bands (ev):

     1.1193   1.1194   2.5776   2.5778   5.4643   5.4645   6.8861   6.8862
    14.0315  14.0316

          k = 0.2500-0.5000-0.5000 (  1876 PWs)   bands (ev):

     1.7900   1.7902   1.7902   1.7903   6.1170   6.1171   6.1171   6.1172
    14.6458  14.6459

          k = 0.3333 0.3333 0.3333 (  1896 PWs)   bands (ev):

    -0.2321   2.6968   2.6968   2.6968   5.5868   5.5868   5.5868   8.4198
    14.1512  14.1512

          k = 0.3333 0.3333 0.4167 (  1884 PWs)   bands (ev):

     0.3224   1.7897   3.2363   3.2363   4.6989   4.6989   6.1210   7.5401
    14.6420  14.6420

          k = 0.3333 0.3333-0.5000 (  1880 PWs)   bands (ev):

     0.9970   0.9972   3.7875   3.7877   4.0311   4.0312   6.7728   6.7729
    15.4264  15.4267

          k = 0.3333 0.4167 0.4167 (  1888 PWs)   bands (ev):

     0.8748   2.3359   2.3359   3.6711   3.9091   5.2320   5.2320   6.6566
    15.1492  16.2916

          k = 0.3333 0.4167-0.5000 (  1884 PWs)   bands (ev):

     1.5468   1.5469   2.9977   2.9978   4.4597   4.4598   5.8860   5.8862
    15.7313  15.7314

          k = 0.3333-0.5000-0.5000 (  1904 PWs)   bands (ev):

     2.2151   2.2152   2.2152   2.2153   5.1132   5.1133   5.1133   5.1134
    16.3226  16.3228

          k = 0.4167 0.4167 0.4167 (  1896 PWs)   bands (ev):

     1.4250   2.8775   2.8775   2.8775   4.3410   4.3411   4.3411   5.7690
    16.9356  16.9357

          k = 0.4167 0.4167-0.5000 (  1886 PWs)   bands (ev):

     2.0940   2.0941   3.4380   3.4381   3.6638   3.6639   4.9954   4.9956
    17.5224  17.5227

          k = 0.4167-0.5000-0.5000 (  1896 PWs)   bands (ev):

     2.7575   2.7576   2.7576   2.7577   4.2212   4.2214   4.2214   4.2215
    17.9815  17.9817

          k =-0.5000-0.5000-0.5000 (  1904 PWs)   bands (ev):

     3.3214   3.3214   3.3214   3.3216   3.5405   3.5407   3.5407   3.5407
    19.3542  19.3544

     the Fermi energy is     7.9051 ev

!    total energy              =    -158.01050486 Ry
     total all-electron energy =     -1942.581626 Ry
     estimated scf accuracy    <          4.6E-09 Ry
     smearing contrib. (-TS)   =      -0.00041092 Ry
     internal energy E=F+TS    =    -158.01009393 Ry

     The total energy is F=E-TS. E is the sum of the following terms:
     one-electron contribution =      12.67553007 Ry
     hartree contribution      =       0.02317342 Ry
     xc contribution           =     -10.36593100 Ry
     ewald contribution        =     -21.62537331 Ry
     one-center paw contrib.   =    -138.71749311 Ry

     convergence has been achieved in   5 iterations

     Forces acting on atoms (cartesian axes, Ry/au):

     atom    1 type  1   force =     0.00000000   -0.00000000    0.00000000
     atom    2 type  1   force =     0.00000000    0.00000000   -0.00000000
     atom    3 type  1   force =     0.00000000    0.00000000    0.00000000
     atom    4 type  1   force =     0.00000000    0.00000000   -0.00000000

     Total force =     0.000000     Total SCF correction =     0.000000


     Computing stress (Cartesian axis) and pressure

          total   stress  (Ry/bohr**3)                   (kbar)     P=       -0.11
  -0.00000073   0.00000000   0.00000000           -0.11        0.00        0.00
   0.00000000  -0.00000073   0.00000000            0.00       -0.11        0.00
   0.00000000   0.00000000  -0.00000073            0.00        0.00       -0.11


     BFGS Geometry Optimization
     Energy error            =      0.0E+00 Ry
     Gradient error          =      1.0E-33 Ry/Bohr
     Cell gradient error     =      1.1E-01 kbar

     bfgs converged in   1 scf cycles and   0 bfgs steps
     (criteria: energy <  1.0E-07 Ry, force <  1.0E-06 Ry/Bohr, cell <  5.0E-01 kbar)

     End of BFGS Geometry Optimization

     Final enthalpy           =    -158.0105048569 Ry
Begin final coordinates
     new unit-cell volume =    444.62665 a.u.^3 (    65.88687 Ang^3 )
     density =      2.72005 g/cm^3

CELL_PARAMETERS (alat=  7.63247100)
   1.000000000   0.000000000   0.000000000
   0.000000000   1.000000000   0.000000000
   0.000000000   0.000000000   1.000000000

ATOMIC_POSITIONS (crystal)
Al            0.0000000000        0.0000000000        0.0000000000
Al            0.5000000000        0.5000000000        0.0000000000
Al            0.5000000000        0.0000000000        0.5000000000
Al            0.0000000000        0.5000000000        0.5000000000
End final coordinates



     Writing config-only to output data dir ./al_bulk.save/

     Final scf calculation at the relaxed structure.
     The G-vectors are recalculated for the final unit cell
     Results may differ from those at the preceding step.
 
     Parallelization info
     --------------------
     sticks:   dense  smooth     PW     G-vecs:    dense   smooth      PW
     Min         116      46     14                 3764      952     162
     Max         117      47     15                 3769      955     163
     Sum        1861     749    233                60245    15275    2601
 
     Using Slab Decomposition
 


     bravais-lattice index     =            1
     lattice parameter (alat)  =       7.6325  a.u.
     unit-cell volume          =     444.6266 (a.u.)^3
     number of atoms/cell      =            4
     number of atomic types    =            1
     number of electrons       =        12.00
     number of Kohn-Sham states=           10
     kinetic-energy cutoff     =      40.0000  Ry
     charge density cutoff     =     400.0000  Ry
     scf convergence threshold =      1.0E-08
     mixing beta               =       0.7000
     number of iterations used =            8  plain     mixing
     press convergence thresh. =      5.0E-01
     Exchange-correlation= SLA  PW   PBX  PBC
                           (   1   4   3   4   0   0   0)

     celldm(1)=   7.632471  celldm(2)=   0.000000  celldm(3)=   0.000000
     celldm(4)=   0.000000  celldm(5)=   0.000000  celldm(6)=   0.000000

     crystal axes: (cart. coord. in units of alat)
               a(1) = (   1.000000   0.000000   0.000000 )  
               a(2) = (   0.000000   1.000000   0.000000 )  
               a(3) = (   0.000000   0.000000   1.000000 )  

     reciprocal axes: (cart. coord. in units 2 pi/alat)
               b(1) = (  1.000000  0.000000  0.000000 )  
               b(2) = (  0.000000  1.000000  0.000000 )  
               b(3) = (  0.000000  0.000000  1.000000 )  


     PseudoPot. # 1 for Al read from file:
     ./Al.pbe-n-kjpaw_psl.1.0.0.UPF
     MD5 check sum: 924dd5e61bb65af96a896c5b13e45148
     Pseudo is Projector augmented-wave + core cor, Zval =  3.0
     Generated using &quot;atomic&quot; code by A. Dal Corso  v.6.3
     Shape of augmentation charge: PSQ
     Using radial grid of 1135 points,  6 beta functions with: 
                l(1) =   0
                l(2) =   0
                l(3) =   1
                l(4) =   1
                l(5) =   2
                l(6) =   2
     Q(r) pseudized with 0 coefficients 


     atomic species   valence    mass     pseudopotential
        Al             3.00    26.98154     Al( 1.00)

     48 Sym. Ops., with inversion, found



   Cartesian axes

     site n.     atom                  positions (alat units)
         1           Al  tau(   1) = (   0.0000000   0.0000000   0.0000000  )
         2           Al  tau(   2) = (   0.5000000   0.5000000   0.0000000  )
         3           Al  tau(   3) = (   0.5000000   0.0000000   0.5000000  )
         4           Al  tau(   4) = (   0.0000000   0.5000000   0.5000000  )

     number of k points=    84  Methfessel-Paxton smearing, width (Ry)=  0.0200
                       cart. coord. in units 2pi/alat
        k(    1) = (   0.0000000   0.0000000   0.0000000), wk =   0.0011574
        k(    2) = (   0.0000000   0.0000000   0.0833333), wk =   0.0069444
        k(    3) = (   0.0000000   0.0000000   0.1666667), wk =   0.0069444
        k(    4) = (   0.0000000   0.0000000   0.2500000), wk =   0.0069444
        k(    5) = (   0.0000000   0.0000000   0.3333333), wk =   0.0069444
        k(    6) = (   0.0000000   0.0000000   0.4166667), wk =   0.0069444
        k(    7) = (   0.0000000   0.0000000  -0.5000000), wk =   0.0034722
        k(    8) = (   0.0000000   0.0833333   0.0833333), wk =   0.0138889
        k(    9) = (   0.0000000   0.0833333   0.1666667), wk =   0.0277778
        k(   10) = (   0.0000000   0.0833333   0.2500000), wk =   0.0277778
        k(   11) = (   0.0000000   0.0833333   0.3333333), wk =   0.0277778
        k(   12) = (   0.0000000   0.0833333   0.4166667), wk =   0.0277778
        k(   13) = (   0.0000000   0.0833333  -0.5000000), wk =   0.0138889
        k(   14) = (   0.0000000   0.1666667   0.1666667), wk =   0.0138889
        k(   15) = (   0.0000000   0.1666667   0.2500000), wk =   0.0277778
        k(   16) = (   0.0000000   0.1666667   0.3333333), wk =   0.0277778
        k(   17) = (   0.0000000   0.1666667   0.4166667), wk =   0.0277778
        k(   18) = (   0.0000000   0.1666667  -0.5000000), wk =   0.0138889
        k(   19) = (   0.0000000   0.2500000   0.2500000), wk =   0.0138889
        k(   20) = (   0.0000000   0.2500000   0.3333333), wk =   0.0277778
        k(   21) = (   0.0000000   0.2500000   0.4166667), wk =   0.0277778
        k(   22) = (   0.0000000   0.2500000  -0.5000000), wk =   0.0138889
        k(   23) = (   0.0000000   0.3333333   0.3333333), wk =   0.0138889
        k(   24) = (   0.0000000   0.3333333   0.4166667), wk =   0.0277778
        k(   25) = (   0.0000000   0.3333333  -0.5000000), wk =   0.0138889
        k(   26) = (   0.0000000   0.4166667   0.4166667), wk =   0.0138889
        k(   27) = (   0.0000000   0.4166667  -0.5000000), wk =   0.0138889
        k(   28) = (   0.0000000  -0.5000000  -0.5000000), wk =   0.0034722
        k(   29) = (   0.0833333   0.0833333   0.0833333), wk =   0.0092593
        k(   30) = (   0.0833333   0.0833333   0.1666667), wk =   0.0277778
        k(   31) = (   0.0833333   0.0833333   0.2500000), wk =   0.0277778
        k(   32) = (   0.0833333   0.0833333   0.3333333), wk =   0.0277778
        k(   33) = (   0.0833333   0.0833333   0.4166667), wk =   0.0277778
        k(   34) = (   0.0833333   0.0833333  -0.5000000), wk =   0.0138889
        k(   35) = (   0.0833333   0.1666667   0.1666667), wk =   0.0277778
        k(   36) = (   0.0833333   0.1666667   0.2500000), wk =   0.0555556
        k(   37) = (   0.0833333   0.1666667   0.3333333), wk =   0.0555556
        k(   38) = (   0.0833333   0.1666667   0.4166667), wk =   0.0555556
        k(   39) = (   0.0833333   0.1666667  -0.5000000), wk =   0.0277778
        k(   40) = (   0.0833333   0.2500000   0.2500000), wk =   0.0277778
        k(   41) = (   0.0833333   0.2500000   0.3333333), wk =   0.0555556
        k(   42) = (   0.0833333   0.2500000   0.4166667), wk =   0.0555556
        k(   43) = (   0.0833333   0.2500000  -0.5000000), wk =   0.0277778
        k(   44) = (   0.0833333   0.3333333   0.3333333), wk =   0.0277778
        k(   45) = (   0.0833333   0.3333333   0.4166667), wk =   0.0555556
        k(   46) = (   0.0833333   0.3333333  -0.5000000), wk =   0.0277778
        k(   47) = (   0.0833333   0.4166667   0.4166667), wk =   0.0277778
        k(   48) = (   0.0833333   0.4166667  -0.5000000), wk =   0.0277778
        k(   49) = (   0.0833333  -0.5000000  -0.5000000), wk =   0.0069444
        k(   50) = (   0.1666667   0.1666667   0.1666667), wk =   0.0092593
        k(   51) = (   0.1666667   0.1666667   0.2500000), wk =   0.0277778
        k(   52) = (   0.1666667   0.1666667   0.3333333), wk =   0.0277778
        k(   53) = (   0.1666667   0.1666667   0.4166667), wk =   0.0277778
        k(   54) = (   0.1666667   0.1666667  -0.5000000), wk =   0.0138889
        k(   55) = (   0.1666667   0.2500000   0.2500000), wk =   0.0277778
        k(   56) = (   0.1666667   0.2500000   0.3333333), wk =   0.0555556
        k(   57) = (   0.1666667   0.2500000   0.4166667), wk =   0.0555556
        k(   58) = (   0.1666667   0.2500000  -0.5000000), wk =   0.0277778
        k(   59) = (   0.1666667   0.3333333   0.3333333), wk =   0.0277778
        k(   60) = (   0.1666667   0.3333333   0.4166667), wk =   0.0555556
        k(   61) = (   0.1666667   0.3333333  -0.5000000), wk =   0.0277778
        k(   62) = (   0.1666667   0.4166667   0.4166667), wk =   0.0277778
        k(   63) = (   0.1666667   0.4166667  -0.5000000), wk =   0.0277778
        k(   64) = (   0.1666667  -0.5000000  -0.5000000), wk =   0.0069444
        k(   65) = (   0.2500000   0.2500000   0.2500000), wk =   0.0092593
        k(   66) = (   0.2500000   0.2500000   0.3333333), wk =   0.0277778
        k(   67) = (   0.2500000   0.2500000   0.4166667), wk =   0.0277778
        k(   68) = (   0.2500000   0.2500000  -0.5000000), wk =   0.0138889
        k(   69) = (   0.2500000   0.3333333   0.3333333), wk =   0.0277778
        k(   70) = (   0.2500000   0.3333333   0.4166667), wk =   0.0555556
        k(   71) = (   0.2500000   0.3333333  -0.5000000), wk =   0.0277778
        k(   72) = (   0.2500000   0.4166667   0.4166667), wk =   0.0277778
        k(   73) = (   0.2500000   0.4166667  -0.5000000), wk =   0.0277778
        k(   74) = (   0.2500000  -0.5000000  -0.5000000), wk =   0.0069444
        k(   75) = (   0.3333333   0.3333333   0.3333333), wk =   0.0092593
        k(   76) = (   0.3333333   0.3333333   0.4166667), wk =   0.0277778
        k(   77) = (   0.3333333   0.3333333  -0.5000000), wk =   0.0138889
        k(   78) = (   0.3333333   0.4166667   0.4166667), wk =   0.0277778
        k(   79) = (   0.3333333   0.4166667  -0.5000000), wk =   0.0277778
        k(   80) = (   0.3333333  -0.5000000  -0.5000000), wk =   0.0069444
        k(   81) = (   0.4166667   0.4166667   0.4166667), wk =   0.0092593
        k(   82) = (   0.4166667   0.4166667  -0.5000000), wk =   0.0138889
        k(   83) = (   0.4166667  -0.5000000  -0.5000000), wk =   0.0069444
        k(   84) = (  -0.5000000  -0.5000000  -0.5000000), wk =   0.0011574

     Dense  grid:    60245 G-vectors     FFT dimensions: (  50,  50,  50)

     Smooth grid:    15275 G-vectors     FFT dimensions: (  32,  32,  32)

     Estimated max dynamical RAM per process >      20.30 MB

     Estimated total dynamical RAM >     324.75 MB

     Initial potential from superposition of free atoms

     starting charge      11.9908, renormalised to      12.0000
     Starting wfcs are   16 randomized atomic wfcs
     Checking if some PAW data can be deallocated... 

     total cpu time spent up to now is        3.5 secs

     Self-consistent Calculation

     iteration #  1     ecut=    40.00 Ry     beta= 0.70
     Davidson diagonalization with overlap
     c_bands:  3 eigenvalues not converged
     c_bands:  1 eigenvalues not converged
     c_bands:  1 eigenvalues not converged
     c_bands:  1 eigenvalues not converged
     c_bands:  1 eigenvalues not converged
     c_bands:  1 eigenvalues not converged
     c_bands:  2 eigenvalues not converged
     c_bands:  2 eigenvalues not converged
     c_bands:  1 eigenvalues not converged
     c_bands:  2 eigenvalues not converged
     c_bands:  1 eigenvalues not converged
     c_bands:  1 eigenvalues not converged
     c_bands:  2 eigenvalues not converged
     c_bands:  1 eigenvalues not converged
     c_bands:  1 eigenvalues not converged
     c_bands:  1 eigenvalues not converged
     c_bands:  2 eigenvalues not converged
     c_bands:  2 eigenvalues not converged
     c_bands:  2 eigenvalues not converged
     c_bands:  1 eigenvalues not converged
     c_bands:  2 eigenvalues not converged
     c_bands:  1 eigenvalues not converged
     c_bands:  1 eigenvalues not converged
     c_bands:  1 eigenvalues not converged
     c_bands:  1 eigenvalues not converged
     c_bands:  3 eigenvalues not converged
     c_bands:  2 eigenvalues not converged
     c_bands:  2 eigenvalues not converged
     c_bands:  1 eigenvalues not converged
     c_bands:  1 eigenvalues not converged
     c_bands:  1 eigenvalues not converged
     c_bands:  2 eigenvalues not converged
     c_bands:  2 eigenvalues not converged
     c_bands:  1 eigenvalues not converged
     c_bands:  2 eigenvalues not converged
     c_bands:  1 eigenvalues not converged
     ethr =  1.00E-06,  avg # of iterations = 17.4

     total cpu time spent up to now is        4.6 secs

     total energy              =    -158.01060331 Ry
     estimated scf accuracy    <       0.02202478 Ry

     iteration #  2     ecut=    40.00 Ry     beta= 0.70
     Davidson diagonalization with overlap
     ethr =  1.84E-04,  avg # of iterations =  1.1

     total cpu time spent up to now is        4.9 secs

     total energy              =    -158.01042305 Ry
     estimated scf accuracy    <       0.00163528 Ry

     iteration #  3     ecut=    40.00 Ry     beta= 0.70
     Davidson diagonalization with overlap
     ethr =  1.36E-05,  avg # of iterations =  1.4

     total cpu time spent up to now is        5.2 secs

     total energy              =    -158.01048312 Ry
     estimated scf accuracy    <       0.00000256 Ry

     iteration #  4     ecut=    40.00 Ry     beta= 0.70
     Davidson diagonalization with overlap
     c_bands:  1 eigenvalues not converged
     ethr =  2.14E-08,  avg # of iterations =  6.4

     total cpu time spent up to now is        5.7 secs

     total energy              =    -158.01050477 Ry
     estimated scf accuracy    <       0.00000150 Ry

     iteration #  5     ecut=    40.00 Ry     beta= 0.70
     Davidson diagonalization with overlap
     ethr =  1.25E-08,  avg # of iterations =  1.2

     total cpu time spent up to now is        5.9 secs

     End of self-consistent calculation

          k = 0.0000 0.0000 0.0000 (  1935 PWs)   bands (ev):

    -3.2269   4.9943   4.9943   4.9943   6.3220   6.3221   6.3221  13.1808
    13.5312  13.5322

          k = 0.0000 0.0000 0.0833 (  1895 PWs)   bands (ev):

    -3.1638   4.1258   5.0520   5.0520   6.3829   6.3830   7.2997  12.0054
    12.0054  13.0946

          k = 0.0000 0.0000 0.1667 (  1887 PWs)   bands (ev):

    -2.9748   2.9204   5.2250   5.2250   6.5648   6.5648   8.8323  10.7880
    10.7880  12.1935

          k = 0.0000 0.0000 0.2500 (  1891 PWs)   bands (ev):

    -2.6604   1.7833   5.5135   5.5135   6.8643   6.8643   9.6844   9.6844
    10.5141  11.2151

          k = 0.0000 0.0000 0.3333 (  1916 PWs)   bands (ev):

    -2.2215   0.7497   5.9177   5.9177   7.2727   7.2727   8.6975   8.6975
    10.2878  10.2879

          k = 0.0000 0.0000 0.4167 (  1908 PWs)   bands (ev):

    -1.6592  -0.1712   6.4379   6.4379   7.7576   7.7576   7.8275   7.8275
     9.4825   9.4827

          k = 0.0000 0.0000-0.5000 (  1888 PWs)   bands (ev):

    -0.9752  -0.9750   7.0743   7.0743   7.0745   7.0745   8.0899   8.0900
     9.0421   9.0423

          k = 0.0000 0.0833 0.0833 (  1895 PWs)   bands (ev):

    -3.1008   4.1850   4.1850   5.1096   6.4435   7.3587   7.3588  11.1561
    12.0638  12.0639

          k = 0.0000 0.0833 0.1667 (  1888 PWs)   bands (ev):

    -2.9119   2.9805   4.3626   5.2827   6.6238   7.5350   8.8895  10.0007
    10.8462  12.2511

          k = 0.0000 0.0833 0.2500 (  1905 PWs)   bands (ev):

    -2.5977   1.8441   4.6582   5.5712   6.9176   7.8245   8.9212   9.7425
    10.5682  11.2767

          k = 0.0000 0.0833 0.3333 (  1911 PWs)   bands (ev):

    -2.1589   0.8109   5.0710   5.9755   7.2800   7.9906   8.2142   8.7555
    10.3602  11.1498

          k = 0.0000 0.0833 0.4167 (  1902 PWs)   bands (ev):

    -1.5969  -0.1095   5.5995   6.4957   6.9700   7.8855   7.9462   8.6216
     9.6245  10.3173

          k = 0.0000 0.0833-0.5000 (  1900 PWs)   bands (ev):

    -0.9131  -0.9130   6.2397   6.2399   7.1322   7.1324   8.4817   8.4818
     9.6520   9.6522

          k = 0.0000 0.1667 0.1667 (  1893 PWs)   bands (ev):

    -2.7233   3.1609   3.1609   5.4558   6.7965   8.8671   9.0590   9.0590
    11.0208  11.0208

          k = 0.0000 0.1667 0.2500 (  1900 PWs)   bands (ev):

    -2.4095   2.0262   3.4609   5.7444   7.0380   7.8406   9.3309   9.9169
    10.7239  11.4663

          k = 0.0000 0.1667 0.3333 (  1898 PWs)   bands (ev):

    -1.9713   0.9946   3.8799   6.1488   6.6674   7.6420   8.9296   9.6393
    10.6270  11.7186

          k = 0.0000 0.1667 0.4167 (  1890 PWs)   bands (ev):

    -1.4100   0.0754   4.4165   5.8290   6.6693   8.0594   8.1325   9.4316
    10.4986  11.7658

          k = 0.0000 0.1667-0.5000 (  1896 PWs)   bands (ev):

    -0.7272  -0.7270   5.0681   5.0682   7.3059   7.3061   8.7588   8.7589
    11.0461  11.0462

          k = 0.0000 0.2500 0.2500 (  1893 PWs)   bands (ev):

    -2.0964   2.3294   2.3294   6.0333   6.5589   7.5301  10.2074  10.2074
    10.9213  10.9214

          k = 0.0000 0.2500 0.3333 (  1902 PWs)   bands (ev):

    -1.6592   1.3002   2.7527   5.6075   6.4379   7.9069   9.2199  10.6029
    10.6141  11.6223

          k = 0.0000 0.2500 0.4167 (  1894 PWs)   bands (ev):

    -1.0991   0.3830   3.2949   4.7275   6.9586   8.3493   8.4357   9.8222
    11.1367  12.0604

          k = 0.0000 0.2500-0.5000 (  1914 PWs)   bands (ev):

    -0.4178  -0.4177   3.9542   3.9543   7.5955   7.5957   9.0801   9.0802
    11.7750  11.7751

          k = 0.0000 0.3333 0.3333 (  1903 PWs)   bands (ev):

    -1.2234   1.7269   1.7269   4.6122   6.8428   8.3212   9.6262   9.6263
    11.0980  11.0981

          k = 0.0000 0.3333 0.4167 (  1906 PWs)   bands (ev):

    -0.6651   0.8125   2.2735   3.7195   7.3639   8.7553   8.8566  10.1488
    10.2572  11.6381

          k = 0.0000 0.3333-0.5000 (  1896 PWs)   bands (ev):

     0.0142   0.0144   2.9385   2.9386   8.0012   8.0014   9.5048   9.5050
    10.7873  10.7874

          k = 0.0000 0.4167 0.4167 (  1913 PWs)   bands (ev):

    -0.1089   1.3629   1.3629   2.8191   7.8853   9.2775   9.2776   9.3927
    10.6709  10.7919

          k = 0.0000 0.4167-0.5000 (  1910 PWs)   bands (ev):

     0.5677   0.5679   2.0324   2.0326   8.5231   8.5232   9.9160   9.9162
    10.0399  10.0400

          k = 0.0000-0.5000-0.5000 (  1924 PWs)   bands (ev):

     1.2411   1.2412   1.2412   1.2414   9.1612   9.1614   9.1614   9.1615
    10.6839  10.6840

          k = 0.0833 0.0833 0.0833 (  1896 PWs)   bands (ev):

    -3.0378   4.2442   4.2442   4.2442   7.4173   7.4173   7.4173  11.2147
    11.2148  11.2148

          k = 0.0833 0.0833 0.1667 (  1893 PWs)   bands (ev):

    -2.8490   3.0407   4.4217   4.4218   7.5911   7.5911   8.9452  10.0612
    10.0613  11.3915

          k = 0.0833 0.0833 0.2500 (  1904 PWs)   bands (ev):

    -2.5349   1.9048   4.7171   4.7171   7.8669   7.8670   8.9918   8.9918
    10.6144  11.6918

          k = 0.0833 0.0833 0.3333 (  1901 PWs)   bands (ev):

    -2.0964   0.8722   5.1293   5.1293   7.8775   7.8776   8.4016   8.4017
    11.2124  11.2125

          k = 0.0833 0.0833 0.4167 (  1907 PWs)   bands (ev):

    -1.5346  -0.0479   5.6551   5.6551   7.0725   7.0726   8.8310   8.8310
    10.3958  10.3959

          k = 0.0833 0.0833-0.5000 (  1912 PWs)   bands (ev):

    -0.8511  -0.8510   6.1966   6.1967   6.4214   6.4216   9.2031   9.2032
     9.9094   9.9096

          k = 0.0833 0.1667 0.1667 (  1895 PWs)   bands (ev):

    -2.6605   3.2209   3.2209   4.5989   7.7481   8.9398   9.1038   9.1038
    10.2494  10.2495

          k = 0.0833 0.1667 0.2500 (  1905 PWs)   bands (ev):

    -2.3468   2.0869   3.5208   4.8933   7.6783   8.2187   9.0405   9.5101
    10.4334  10.8848

          k = 0.0833 0.1667 0.3333 (  1910 PWs)   bands (ev):

    -1.9088   1.0558   3.9395   5.3020   6.7850   8.1230   8.5374   9.8231
    10.9020  11.4096

          k = 0.0833 0.1667 0.4167 (  1900 PWs)   bands (ev):

    -1.3478   0.1369   4.4752   5.7438   6.0019   7.2564   9.0480  10.1225
    10.7750  11.4313

          k = 0.0833 0.1667-0.5000 (  1910 PWs)   bands (ev):

    -0.6653  -0.6651   5.1233   5.1234   6.5017   6.5018   9.6553   9.6554
    11.1230  11.1232

          k = 0.0833 0.2500 0.2500 (  1903 PWs)   bands (ev):

    -2.0338   2.3899   2.3899   5.1841   6.6794   8.4263   9.4032   9.4032
    11.0930  11.0931

          k = 0.0833 0.2500 0.3333 (  1907 PWs)   bands (ev):

    -1.5969   1.3612   2.8130   5.5127   5.7776   8.4245   8.8292   9.8200
    11.2896  11.8887

          k = 0.0833 0.2500 0.4167 (  1899 PWs)   bands (ev):

    -1.0371   0.4444   3.3549   4.7829   6.1514   7.5518   9.3537  10.3469
    10.7082  11.7399

          k = 0.0833 0.2500-0.5000 (  1900 PWs)   bands (ev):

    -0.3560  -0.3559   4.0133   4.0134   6.7921   6.7922   9.9874   9.9875
    10.9870  10.9871

          k = 0.0833 0.3333 0.3333 (  1894 PWs)   bands (ev):

    -1.1613   1.7877   1.7877   4.6677   6.0341   8.8369   8.8369   9.2419
    11.6284  11.9748

          k = 0.0833 0.3333 0.4167 (  1904 PWs)   bands (ev):

    -0.6031   0.8738   2.3341   3.7788   6.5582   7.9631   9.3639   9.7700
    10.7610  11.1507

          k = 0.0833 0.3333-0.5000 (  1892 PWs)   bands (ev):

     0.0758   0.0760   2.9987   2.9988   7.2026   7.2028  10.0055  10.0056
    10.4089  10.4090

          k = 0.0833 0.4167 0.4167 (  1916 PWs)   bands (ev):

    -0.0472   1.4239   1.4240   2.8794   7.0859   8.4906   8.4906   9.8910
    10.2988  11.6815

          k = 0.0833 0.4167-0.5000 (  1906 PWs)   bands (ev):

     0.6291   0.6292   2.0932   2.0933   7.7305   7.7306   9.1335   9.1337
    10.9376  10.9378

          k = 0.0833-0.5000-0.5000 (  1908 PWs)   bands (ev):

     1.3022   1.3023   1.3023   1.3025   8.3744   8.3746   8.3746   8.3748
    11.5745  11.5747

          k = 0.1667 0.1667 0.1667 (  1905 PWs)   bands (ev):

    -2.4722   3.4009   3.4009   3.4009   8.9518   8.9519   8.9519   9.4355
     9.4355   9.4355

          k = 0.1667 0.1667 0.2500 (  1905 PWs)   bands (ev):

    -2.1589   2.2688   3.7002   3.7002   7.9523   7.9523   9.3388   9.6386
     9.6386  11.0149

          k = 0.1667 0.1667 0.3333 (  1896 PWs)   bands (ev):

    -1.7216   1.2391   4.1176   4.1176   6.9730   6.9731   9.7588  10.0304
    10.0304  12.8222

          k = 0.1667 0.1667 0.4167 (  1898 PWs)   bands (ev):

    -1.1613   0.3215   4.6489   4.6489   6.0993   6.0993  10.2871  10.5244
    10.5244  11.6807

          k = 0.1667 0.1667-0.5000 (  1918 PWs)   bands (ev):

    -0.4796  -0.4795   5.1789   5.1790   5.4544   5.4546  10.9253  10.9258
    10.9278  10.9279

          k = 0.1667 0.2500 0.2500 (  1902 PWs)   bands (ev):

    -1.8464   2.5714   2.5714   3.9982   6.8683   8.2583   8.2584   9.9255
    11.2932  11.2932

          k = 0.1667 0.2500 0.3333 (  1889 PWs)   bands (ev):

    -1.4100   1.5442   2.9937   4.4110   5.8793   7.2710   8.6732  10.3304
    11.4684  11.6725

          k = 0.1667 0.2500 0.4167 (  1902 PWs)   bands (ev):

    -0.8509   0.6286   3.5342   4.8323   5.1066   6.3915   9.2021  10.6015
    10.8459  11.9731

          k = 0.1667 0.2500-0.5000 (  1902 PWs)   bands (ev):

    -0.1708  -0.1706   4.1881   4.1882   5.6286   5.6287   9.8452   9.8454
    11.4553  11.4554

          k = 0.1667 0.3333 0.3333 (  1902 PWs)   bands (ev):

    -0.9750   1.9701   1.9701   4.7162   4.9887   7.6848   7.6848  10.4906
    10.7405  13.2508

          k = 0.1667 0.3333 0.4167 (  1900 PWs)   bands (ev):

    -0.4176   1.0575   2.5157   3.9543   5.3916   6.8048   8.2149   9.6198
    11.2610  12.6038

          k = 0.1667 0.3333-0.5000 (  1888 PWs)   bands (ev):

     0.2605   0.2607   3.1788   3.1789   6.0384   6.0385   8.8603   8.8605
    11.8871  11.8873

          k = 0.1667 0.4167 0.4167 (  1900 PWs)   bands (ev):

     0.1376   1.6069   1.6069   3.0598   5.9203   7.3360   7.3360   8.7456
    11.7832  13.1396

          k = 0.1667 0.4167-0.5000 (  1900 PWs)   bands (ev):

     0.8131   0.8132   2.2751   2.2753   6.5700   6.5702   7.9835   7.9836
    12.4116  12.4117

          k = 0.1667-0.5000-0.5000 (  1880 PWs)   bands (ev):

     1.4853   1.4855   1.4855   1.4856   7.2190   7.2192   7.2192   7.2193
    13.0391  13.0393

          k = 0.2500 0.2500 0.2500 (  1899 PWs)   bands (ev):

    -1.5346   2.8731   2.8732   2.8732   7.1667   7.1668   7.1668  11.3677
    11.5865  11.5866

          k = 0.2500 0.2500 0.3333 (  1894 PWs)   bands (ev):

    -1.0991   1.8486   3.2940   3.2940   6.1723   6.1723   7.5813  10.3895
    11.9859  11.9859

          k = 0.2500 0.2500 0.4167 (  1898 PWs)   bands (ev):

    -0.5413   0.9351   3.8300   3.8300   5.2897   5.2897   8.1120   9.5183
    12.4808  12.4808

          k = 0.2500 0.2500-0.5000 (  1894 PWs)   bands (ev):

     0.1374   0.1376   4.3691   4.3692   4.6345   4.6347   8.7581   8.7583
    12.8997  12.9001

          k = 0.2500 0.3333 0.3333 (  1898 PWs)   bands (ev):

    -0.6650   2.2735   2.2735   3.7103   5.1746   6.5867   6.5867   9.4070
    12.3931  13.7435

          k = 0.2500 0.3333 0.4167 (  1895 PWs)   bands (ev):

    -0.1088   1.3630   2.8174   4.1366   4.3945   5.7012   7.1192   8.5316
    12.9034  14.0555

          k = 0.2500 0.3333-0.5000 (  1894 PWs)   bands (ev):

     0.5678   0.5680   3.4760   3.4761   4.9326   4.9327   7.7680   7.7682
    13.5060  13.5062

          k = 0.2500 0.4167 0.4167 (  1892 PWs)   bands (ev):

     0.4452   1.9112   1.9112   3.3575   4.8132   6.2348   6.2348   7.6526
    13.4185  14.7268

          k = 0.2500 0.4167-0.5000 (  1896 PWs)   bands (ev):

     1.1193   1.1194   2.5776   2.5777   5.4643   5.4644   6.8860   6.8861
    14.0314  14.0315

          k = 0.2500-0.5000-0.5000 (  1876 PWs)   bands (ev):

     1.7899   1.7901   1.7901   1.7902   6.1169   6.1171   6.1171   6.1172
    14.6456  14.6458

          k = 0.3333 0.3333 0.3333 (  1896 PWs)   bands (ev):

    -0.2322   2.6967   2.6967   2.6967   5.5867   5.5867   5.5867   8.4197
    14.1511  14.1511

          k = 0.3333 0.3333 0.4167 (  1884 PWs)   bands (ev):

     0.3224   1.7897   3.2362   3.2362   4.6988   4.6989   6.1209   7.5400
    14.6418  14.6419

          k = 0.3333 0.3333-0.5000 (  1880 PWs)   bands (ev):

     0.9970   0.9971   3.7875   3.7876   4.0310   4.0312   6.7727   6.7729
    15.0809  15.0810

          k = 0.3333 0.4167 0.4167 (  1888 PWs)   bands (ev):

     0.8748   2.3358   2.3358   3.6710   3.9090   5.2319   5.2320   6.6565
    15.1491  16.2938

          k = 0.3333 0.4167-0.5000 (  1884 PWs)   bands (ev):

     1.5467   1.5468   2.9976   2.9977   4.4596   4.4597   5.8860   5.8861
    15.7312  15.7313

          k = 0.3333-0.5000-0.5000 (  1904 PWs)   bands (ev):

     2.2150   2.2151   2.2151   2.2153   5.1131   5.1133   5.1133   5.1134
    16.3225  16.3227

          k = 0.4167 0.4167 0.4167 (  1896 PWs)   bands (ev):

     1.4250   2.8775   2.8775   2.8775   4.3410   4.3410   4.3410   5.7690
    16.9353  16.9354

          k = 0.4167 0.4167-0.5000 (  1886 PWs)   bands (ev):

     2.0939   2.0941   3.4379   3.4380   3.6637   3.6639   4.9953   4.9955
    17.5220  17.5223

          k = 0.4167-0.5000-0.5000 (  1896 PWs)   bands (ev):

     2.7574   2.7575   2.7575   2.7577   4.2211   4.2213   4.2213   4.2214
    17.9814  17.9816

          k =-0.5000-0.5000-0.5000 (  1904 PWs)   bands (ev):

     3.3213   3.3213   3.3213   3.3215   3.5403   3.5407   3.5407   3.5407
    19.3542  19.3542

     the Fermi energy is     7.9050 ev

!    total energy              =    -158.01050484 Ry
     total all-electron energy =     -1942.581626 Ry
     estimated scf accuracy    <          5.0E-09 Ry
     smearing contrib. (-TS)   =      -0.00041092 Ry
     internal energy E=F+TS    =    -158.01009392 Ry

     The total energy is F=E-TS. E is the sum of the following terms:
     one-electron contribution =      12.67556889 Ry
     hartree contribution      =       0.02317346 Ry
     xc contribution           =     -10.36594475 Ry
     ewald contribution        =     -21.62537331 Ry
     one-center paw contrib.   =    -138.71751821 Ry

     convergence has been achieved in   5 iterations

     Forces acting on atoms (cartesian axes, Ry/au):

     atom    1 type  1   force =     0.00000000    0.00000000    0.00000000
     atom    2 type  1   force =     0.00000000    0.00000000    0.00000000
     atom    3 type  1   force =     0.00000000    0.00000000   -0.00000000
     atom    4 type  1   force =     0.00000000    0.00000000    0.00000000

     Total force =     0.000000     Total SCF correction =     0.000000


     Computing stress (Cartesian axis) and pressure

          total   stress  (Ry/bohr**3)                   (kbar)     P=       -0.08
  -0.00000051   0.00000000   0.00000000           -0.08        0.00        0.00
   0.00000000  -0.00000051   0.00000000            0.00       -0.08        0.00
   0.00000000   0.00000000  -0.00000051            0.00        0.00       -0.08


     Writing all to output data dir ./al_bulk.save/
 
     init_run     :      0.60s CPU      0.67s WALL (       2 calls)
     electrons    :      4.26s CPU      4.69s WALL (       2 calls)
     forces       :      0.18s CPU      0.19s WALL (       2 calls)
     stress       :      0.47s CPU      0.48s WALL (       2 calls)

     Called by init_run:
     wfcinit      :      0.19s CPU      0.21s WALL (       2 calls)
     potinit      :      0.14s CPU      0.15s WALL (       2 calls)
     hinit0       :      0.20s CPU      0.23s WALL (       2 calls)

     Called by electrons:
     c_bands      :      3.19s CPU      3.52s WALL (      11 calls)
     sum_band     :      0.49s CPU      0.54s WALL (      11 calls)
     v_of_rho     :      0.04s CPU      0.04s WALL (      12 calls)
     newd         :      0.11s CPU      0.12s WALL (      12 calls)
     PAW_pot      :      0.54s CPU      0.54s WALL (      12 calls)
     mix_rho      :      0.00s CPU      0.00s WALL (      11 calls)

     Called by c_bands:
     init_us_2    :      0.08s CPU      0.09s WALL (    2352 calls)
     init_us_2:cp :      0.07s CPU      0.08s WALL (    2352 calls)
     cegterg      :      2.71s CPU      3.00s WALL (     924 calls)

     Called by *egterg:
     cdiaghg      :      0.50s CPU      0.55s WALL (    4939 calls)
     h_psi        :      1.97s CPU      2.20s WALL (    5191 calls)
     s_psi        :      0.07s CPU      0.08s WALL (    5191 calls)
     g_psi        :      0.01s CPU      0.01s WALL (    4099 calls)

     Called by h_psi:
     h_psi:calbec :      0.14s CPU      0.15s WALL (    5191 calls)
     vloc_psi     :      1.71s CPU      1.90s WALL (    5191 calls)
     add_vuspsi   :      0.08s CPU      0.09s WALL (    5191 calls)

     General routines
     calbec       :      0.17s CPU      0.19s WALL (    6955 calls)
     fft          :      0.07s CPU      0.09s WALL (     203 calls)
     ffts         :      0.00s CPU      0.00s WALL (      23 calls)
     fftw         :      1.70s CPU      1.90s WALL (   82866 calls)
     interpolate  :      0.00s CPU      0.00s WALL (      12 calls)
 
     Parallel routines
 
     PWSCF        :      5.72s CPU      6.58s WALL

 
   This run was terminated on:  15:50: 6  21Jul2025            

=------------------------------------------------------------------------------=
   JOB DONE.
=------------------------------------------------------------------------------=
