
     Program PROJWFC v.6.8 starts on  1Sep2025 at 14:26:35 

     This program is part of the open-source Quantum ESPRESSO suite
     for quantum simulation of materials; please cite
         "P. Giannozzi et al., J. Phys.:Condens. Matter 21 395502 (2009);
         "P. Giannozzi et al., J. Phys.:Condens. Matter 29 465901 (2017);
         "P. Giannozzi et al., J. Chem. Phys. 152 154105 (2020);
          URL http://www.quantum-espresso.org", 
     in publications or presentations arising from this work. More details at
     http://www.quantum-espresso.org/quote

     Parallel version (MPI), running on     8 processors

     MPI processes distributed on     1 nodes
     R & G space division:  proc/nbgrp/npool/nimage =       8
     222783 MiB available memory on the printing compute node when the environment starts
 

     Reading xml data from directory:

     ./vdw-df3-opt1.save/
     file C.pbe-n-kjpaw_psl.1.0.0.UPF: wavefunction(s)  2S 2P renormalized

     IMPORTANT: XC functional enforced from input :
     Exchange-correlation= PBE
                           (   1   4   3   4   0   0   0)
     Any further DFT definition will be discarded
     Please, verify this is what you really want

 
     Parallelization info
     --------------------
     sticks:   dense  smooth     PW     G-vecs:    dense   smooth      PW
     Min         148      59     18                50540    12771    2138
     Max         149      60     19                50571    12814    2163
     Sum        1189     475    151               404453   102305   17211
 
     Using Slab Decomposition
 

     negative rho (up, down):  1.921E-05 0.000E+00

     Gaussian broadening (read from input): ngauss,degauss=   1    0.020000


     Calling projwave .... 

     Subspace diagonalization in iterative solution of the eigenvalue problem:
     a serial algorithm will be used

 
  Problem Sizes 
  natomwfc =           32
  nbnd     =           30
  nkstot   =          271
  npwx     =         1605
  nkb      =           64
 

     Atomic states used for projection
     (read from pseudopotential files):

     state #   1: atom   1 (C  ), wfc  1 (l=0 m= 1)
     state #   2: atom   1 (C  ), wfc  2 (l=1 m= 1)
     state #   3: atom   1 (C  ), wfc  2 (l=1 m= 2)
     state #   4: atom   1 (C  ), wfc  2 (l=1 m= 3)
     state #   5: atom   2 (C  ), wfc  1 (l=0 m= 1)
     state #   6: atom   2 (C  ), wfc  2 (l=1 m= 1)
     state #   7: atom   2 (C  ), wfc  2 (l=1 m= 2)
     state #   8: atom   2 (C  ), wfc  2 (l=1 m= 3)
     state #   9: atom   3 (C  ), wfc  1 (l=0 m= 1)
     state #  10: atom   3 (C  ), wfc  2 (l=1 m= 1)
     state #  11: atom   3 (C  ), wfc  2 (l=1 m= 2)
     state #  12: atom   3 (C  ), wfc  2 (l=1 m= 3)
     state #  13: atom   4 (C  ), wfc  1 (l=0 m= 1)
     state #  14: atom   4 (C  ), wfc  2 (l=1 m= 1)
     state #  15: atom   4 (C  ), wfc  2 (l=1 m= 2)
     state #  16: atom   4 (C  ), wfc  2 (l=1 m= 3)
     state #  17: atom   5 (C  ), wfc  1 (l=0 m= 1)
     state #  18: atom   5 (C  ), wfc  2 (l=1 m= 1)
     state #  19: atom   5 (C  ), wfc  2 (l=1 m= 2)
     state #  20: atom   5 (C  ), wfc  2 (l=1 m= 3)
     state #  21: atom   6 (C  ), wfc  1 (l=0 m= 1)
     state #  22: atom   6 (C  ), wfc  2 (l=1 m= 1)
     state #  23: atom   6 (C  ), wfc  2 (l=1 m= 2)
     state #  24: atom   6 (C  ), wfc  2 (l=1 m= 3)
     state #  25: atom   7 (C  ), wfc  1 (l=0 m= 1)
     state #  26: atom   7 (C  ), wfc  2 (l=1 m= 1)
     state #  27: atom   7 (C  ), wfc  2 (l=1 m= 2)
     state #  28: atom   7 (C  ), wfc  2 (l=1 m= 3)
     state #  29: atom   8 (C  ), wfc  1 (l=0 m= 1)
     state #  30: atom   8 (C  ), wfc  2 (l=1 m= 1)
     state #  31: atom   8 (C  ), wfc  2 (l=1 m= 2)
     state #  32: atom   8 (C  ), wfc  2 (l=1 m= 3)

 k =   0.0000000000  0.0000000000  0.0000000000
==== e(   1) =   -18.89373 eV ==== 
     psi = 0.187*[#   9]+0.187*[#  13]+0.170*[#  17]+0.170*[#  21]+0.077*[#   1]
          +0.077*[#   5]+0.055*[#  25]+0.055*[#  29]
    |psi|^2 = 0.981
==== e(   2) =   -18.81176 eV ==== 
     psi = 0.186*[#   5]+0.186*[#   1]+0.161*[#  25]+0.161*[#  29]+0.090*[#  17]
          +0.090*[#  21]+0.052*[#   9]+0.052*[#  13]+0.001*[#  10]+0.001*[#  14]
          +0.001*[#  18]+0.001*[#  22]
    |psi|^2 = 0.984
==== e(   3) =   -18.70815 eV ==== 
     psi = 0.185*[#  25]+0.185*[#  29]+0.173*[#   1]+0.173*[#   5]+0.090*[#   9]
          +0.090*[#  13]+0.043*[#  17]+0.043*[#  21]+0.001*[#  18]+0.001*[#  22]
          +0.001*[#  10]
    |psi|^2 = 0.988
==== e(   4) =   -18.62382 eV ==== 
     psi = 0.187*[#  17]+0.187*[#  21]+0.161*[#   9]+0.161*[#  13]+0.090*[#  25]
          +0.090*[#  29]+0.056*[#   1]+0.056*[#   5]
    |psi|^2 = 0.991
==== e(   5) =    -7.64667 eV ==== 
     psi = 0.175*[#  14]+0.174*[#  10]+0.174*[#  18]+0.174*[#  22]+0.065*[#   6]
          +0.065*[#   2]+0.064*[#  26]+0.063*[#  30]
    |psi|^2 = 0.956
==== e(   6) =    -7.17148 eV ==== 
     psi = 0.173*[#   6]+0.172*[#   2]+0.167*[#  26]+0.166*[#  30]+0.070*[#  22]
          +0.070*[#  18]+0.066*[#  10]+0.066*[#  14]+0.001*[#   9]+0.002*[#  13]
          +0.001*[#  17]+0.001*[#  21]
    |psi|^2 = 0.957
==== e(   7) =    -6.53011 eV ==== 
     psi = 0.175*[#   2]+0.175*[#   6]+0.174*[#  26]+0.174*[#  30]+0.070*[#  14]
          +0.069*[#  10]+0.061*[#  18]+0.060*[#  22]+0.002*[#   9]+0.002*[#  17]
          +0.002*[#  21]+0.001*[#  13]
    |psi|^2 = 0.965
==== e(   8) =    -5.95520 eV ==== 
     psi = 0.179*[#  22]+0.179*[#  18]+0.173*[#  10]+0.172*[#  14]+0.073*[#  30]
          +0.073*[#  26]+0.066*[#   2]+0.066*[#   6]
    |psi|^2 = 0.983
==== e(   9) =    -2.22297 eV ==== 
     psi = 0.198*[#   7]+0.198*[#   8]+0.198*[#   3]+0.198*[#   4]+0.045*[#  11]
          +0.045*[#  12]+0.045*[#  15]+0.045*[#  16]+0.006*[#  19]+0.006*[#  20]
          +0.006*[#  23]+0.006*[#  24]
    |psi|^2 = 0.997
==== e(  10) =    -2.22297 eV ==== 
     psi = 0.198*[#   7]+0.198*[#   8]+0.198*[#   3]+0.198*[#   4]+0.045*[#  11]
          +0.045*[#  12]+0.045*[#  15]+0.045*[#  16]+0.006*[#  19]+0.006*[#  20]
          +0.006*[#  23]+0.006*[#  24]
    |psi|^2 = 0.997
==== e(  11) =    -2.21350 eV ==== 
     psi = 0.124*[#  19]+0.124*[#  20]+0.124*[#  23]+0.124*[#  24]+0.067*[#  15]
          +0.067*[#  16]+0.066*[#  11]+0.066*[#  12]+0.037*[#   3]+0.037*[#   4]
          +0.036*[#   7]+0.036*[#   8]+0.022*[#  27]+0.022*[#  28]+0.022*[#  31]
          +0.022*[#  32]
    |psi|^2 = 0.997
==== e(  12) =    -2.21350 eV ==== 
     psi = 0.124*[#  19]+0.124*[#  20]+0.124*[#  23]+0.124*[#  24]+0.067*[#  15]
          +0.067*[#  16]+0.066*[#  11]+0.066*[#  12]+0.036*[#   3]+0.036*[#   4]
          +0.036*[#   7]+0.036*[#   8]+0.022*[#  27]+0.022*[#  28]+0.022*[#  31]
          +0.022*[#  32]
    |psi|^2 = 0.997
==== e(  13) =    -2.20527 eV ==== 
     psi = 0.123*[#  11]+0.123*[#  12]+0.123*[#  15]+0.123*[#  16]+0.067*[#  27]
          +0.067*[#  28]+0.067*[#  31]+0.067*[#  32]+0.045*[#  23]+0.045*[#  24]
          +0.045*[#  19]+0.045*[#  20]+0.014*[#   3]+0.014*[#   4]+0.014*[#   7]
          +0.014*[#   8]
    |psi|^2 = 0.997
==== e(  14) =    -2.20527 eV ==== 
     psi = 0.123*[#  11]+0.123*[#  12]+0.123*[#  15]+0.123*[#  16]+0.067*[#  27]
          +0.067*[#  28]+0.067*[#  31]+0.067*[#  32]+0.045*[#  23]+0.045*[#  24]
          +0.045*[#  19]+0.045*[#  20]+0.014*[#   3]+0.014*[#   4]+0.014*[#   7]
          +0.014*[#   8]
    |psi|^2 = 0.997
==== e(  15) =    -2.19722 eV ==== 
     psi = 0.160*[#  31]+0.160*[#  32]+0.160*[#  27]+0.160*[#  28]+0.074*[#  19]
          +0.074*[#  20]+0.074*[#  23]+0.074*[#  24]+0.015*[#  11]+0.015*[#  12]
          +0.015*[#  15]+0.015*[#  16]
    |psi|^2 = 0.997
==== e(  16) =    -2.19722 eV ==== 
     psi = 0.160*[#  31]+0.160*[#  32]+0.160*[#  27]+0.160*[#  28]+0.074*[#  19]
          +0.074*[#  20]+0.074*[#  23]+0.074*[#  24]+0.015*[#  11]+0.015*[#  12]
          +0.015*[#  15]+0.015*[#  16]
    |psi|^2 = 0.997
==== e(  17) =     4.30965 eV ==== 
     psi = 0.003*[#   2]+0.003*[#   6]+0.002*[#  30]+0.002*[#  26]+0.001*[#   1]
          +0.001*[#   5]
    |psi|^2 = 0.015
==== e(  18) =     4.39233 eV ==== 
     psi = 0.004*[#  30]+0.003*[#  26]+0.002*[#   2]+0.002*[#   6]+0.001*[#  25]
          +0.001*[#  29]
    |psi|^2 = 0.017
==== e(  19) =     4.97169 eV ==== 
 
    |psi|^2 = 0.003
==== e(  20) =     5.61107 eV ==== 
 
    |psi|^2 = 0.004
==== e(  21) =     5.87816 eV ==== 
     psi = 0.002*[#   9]+0.002*[#  13]+0.002*[#  17]+0.002*[#   6]+0.002*[#  21]
          +0.002*[#  26]+0.001*[#   2]+0.001*[#  30]
    |psi|^2 = 0.016
==== e(  22) =     6.78187 eV ==== 
     psi = 0.002*[#   2]+0.002*[#   6]+0.002*[#  26]+0.002*[#  30]
    |psi|^2 = 0.013
==== e(  23) =     7.22666 eV ==== 
     psi = 0.001*[#  10]+0.001*[#  14]+0.001*[#  22]+0.001*[#  18]
    |psi|^2 = 0.011
==== e(  24) =     8.49171 eV ==== 
     psi = 0.004*[#   6]+0.004*[#  26]+0.004*[#   2]+0.004*[#  30]+0.001*[#  10]
          +0.001*[#  14]+0.001*[#  18]+0.001*[#  22]
    |psi|^2 = 0.023
==== e(  25) =     8.90039 eV ==== 
     psi = 0.001*[#  10]+0.001*[#  14]+0.001*[#  18]+0.001*[#  22]
    |psi|^2 = 0.008
==== e(  26) =     9.19368 eV ==== 
     psi = 0.096*[#  11]+0.096*[#  12]+0.096*[#  15]+0.096*[#  16]+0.084*[#   7]
          +0.084*[#   8]+0.083*[#   3]+0.083*[#   4]+0.049*[#  19]+0.049*[#  20]
          +0.049*[#  23]+0.049*[#  24]+0.009*[#  27]+0.009*[#  28]+0.009*[#  31]
          +0.009*[#  32]
    |psi|^2 = 0.950
==== e(  27) =     9.19368 eV ==== 
     psi = 0.096*[#  11]+0.096*[#  12]+0.096*[#  15]+0.096*[#  16]+0.084*[#   7]
          +0.084*[#   8]+0.083*[#   3]+0.083*[#   4]+0.049*[#  19]+0.049*[#  20]
          +0.049*[#  23]+0.049*[#  24]+0.009*[#  27]+0.009*[#  28]+0.009*[#  31]
          +0.009*[#  32]
    |psi|^2 = 0.950
==== e(  28) =     9.20911 eV ==== 
     psi = 0.094*[#   3]+0.094*[#   4]+0.093*[#   7]+0.093*[#   8]+0.092*[#  23]
          +0.092*[#  24]+0.091*[#  19]+0.091*[#  20]+0.053*[#  27]+0.053*[#  28]
          +0.052*[#  31]+0.052*[#  32]
    |psi|^2 = 0.950
==== e(  29) =     9.20911 eV ==== 
     psi = 0.094*[#   3]+0.094*[#   4]+0.093*[#   7]+0.093*[#   8]+0.092*[#  23]
          +0.092*[#  24]+0.091*[#  19]+0.091*[#  20]+0.053*[#  27]+0.053*[#  28]
          +0.052*[#  31]+0.052*[#  32]
    |psi|^2 = 0.950
==== e(  30) =     9.22829 eV ==== 
     psi = 0.096*[#  15]+0.096*[#  16]+0.096*[#  11]+0.096*[#  12]+0.089*[#  31]
          +0.089*[#  32]+0.089*[#  27]+0.089*[#  28]+0.053*[#   3]+0.053*[#   4]
          +0.053*[#   7]+0.053*[#   8]
    |psi|^2 = 0.950

 k =   0.0055555556  0.0032075015  0.0000000000
==== e(   1) =   -18.89299 eV ==== 
     psi = 0.187*[#   9]+0.187*[#  13]+0.170*[#  17]+0.170*[#  21]+0.077*[#   1]
          +0.077*[#   5]+0.055*[#  25]+0.055*[#  29]
    |psi|^2 = 0.981
==== e(   2) =   -18.81102 eV ==== 
     psi = 0.186*[#   5]+0.186*[#   1]+0.161*[#  25]+0.161*[#  29]+0.090*[#  17]
          +0.090*[#  21]+0.052*[#   9]+0.052*[#  13]+0.001*[#  10]+0.001*[#  14]
          +0.001*[#  18]+0.001*[#  22]
    |psi|^2 = 0.984
==== e(   3) =   -18.70742 eV ==== 
     psi = 0.185*[#  25]+0.185*[#  29]+0.173*[#   1]+0.173*[#   5]+0.090*[#   9]
          +0.090*[#  13]+0.043*[#  17]+0.043*[#  21]+0.001*[#  18]+0.001*[#  22]
          +0.001*[#  10]
    |psi|^2 = 0.988
==== e(   4) =   -18.62309 eV ==== 
     psi = 0.187*[#  17]+0.187*[#  21]+0.161*[#   9]+0.161*[#  13]+0.090*[#  25]
          +0.090*[#  29]+0.056*[#   1]+0.056*[#   5]
    |psi|^2 = 0.991
==== e(   5) =    -7.64577 eV ==== 
     psi = 0.175*[#  14]+0.174*[#  10]+0.174*[#  18]+0.174*[#  22]+0.065*[#   6]
          +0.065*[#   2]+0.064*[#  26]+0.063*[#  30]
    |psi|^2 = 0.956
==== e(   6) =    -7.17060 eV ==== 
     psi = 0.173*[#   6]+0.172*[#   2]+0.167*[#  26]+0.166*[#  30]+0.070*[#  22]
          +0.070*[#  18]+0.066*[#  10]+0.066*[#  14]+0.001*[#   9]+0.002*[#  13]
          +0.001*[#  17]+0.001*[#  21]
    |psi|^2 = 0.957
==== e(   7) =    -6.52924 eV ==== 
     psi = 0.175*[#   2]+0.175*[#   6]+0.174*[#  26]+0.174*[#  30]+0.070*[#  14]
          +0.069*[#  10]+0.061*[#  18]+0.060*[#  22]+0.002*[#   9]+0.002*[#  17]
          +0.002*[#  21]+0.001*[#  13]
    |psi|^2 = 0.965
==== e(   8) =    -5.95435 eV ==== 
     psi = 0.179*[#  22]+0.179*[#  18]+0.173*[#  10]+0.172*[#  14]+0.073*[#  30]
          +0.073*[#  26]+0.066*[#   2]+0.066*[#   6]
    |psi|^2 = 0.983
==== e(   9) =    -2.22605 eV ==== 
     psi = 0.198*[#   7]+0.198*[#   8]+0.197*[#   3]+0.197*[#   4]+0.046*[#  11]
          +0.046*[#  12]+0.045*[#  15]+0.045*[#  16]+0.006*[#  19]+0.006*[#  20]
          +0.006*[#  23]+0.006*[#  24]
    |psi|^2 = 0.997
==== e(  10) =    -2.22462 eV ==== 
     psi = 0.198*[#   7]+0.198*[#   8]+0.197*[#   3]+0.197*[#   4]+0.045*[#  11]
          +0.045*[#  12]+0.045*[#  15]+0.045*[#  16]+0.006*[#  19]+0.006*[#  20]
          +0.006*[#  23]+0.006*[#  24]
    |psi|^2 = 0.997
==== e(  11) =    -2.21658 eV ==== 
     psi = 0.124*[#  19]+0.124*[#  20]+0.124*[#  23]+0.124*[#  24]+0.066*[#  15]
          +0.066*[#  16]+0.066*[#  11]+0.066*[#  12]+0.037*[#   3]+0.037*[#   4]
          +0.037*[#   7]+0.037*[#   8]+0.022*[#  27]+0.022*[#  28]+0.022*[#  31]
          +0.022*[#  32]
    |psi|^2 = 0.997
==== e(  12) =    -2.21514 eV ==== 
     psi = 0.124*[#  19]+0.124*[#  20]+0.124*[#  23]+0.124*[#  24]+0.067*[#  15]
          +0.067*[#  16]+0.066*[#  11]+0.066*[#  12]+0.037*[#   3]+0.037*[#   4]
          +0.037*[#   7]+0.037*[#   8]+0.022*[#  27]+0.022*[#  28]+0.022*[#  31]
          +0.022*[#  32]
    |psi|^2 = 0.997
==== e(  13) =    -2.20832 eV ==== 
     psi = 0.123*[#  11]+0.123*[#  12]+0.123*[#  15]+0.123*[#  16]+0.067*[#  27]
          +0.067*[#  28]+0.067*[#  31]+0.067*[#  32]+0.045*[#  23]+0.045*[#  24]
          +0.044*[#  19]+0.044*[#  20]+0.014*[#   3]+0.014*[#   4]+0.014*[#   7]
          +0.014*[#   8]
    |psi|^2 = 0.997
==== e(  14) =    -2.20689 eV ==== 
     psi = 0.123*[#  11]+0.123*[#  12]+0.123*[#  15]+0.123*[#  16]+0.067*[#  27]
          +0.067*[#  28]+0.067*[#  31]+0.067*[#  32]+0.045*[#  23]+0.045*[#  24]
          +0.044*[#  19]+0.044*[#  20]+0.014*[#   3]+0.014*[#   4]+0.014*[#   7]
          +0.014*[#   8]
    |psi|^2 = 0.997
==== e(  15) =    -2.20025 eV ==== 
     psi = 0.159*[#  31]+0.159*[#  32]+0.159*[#  27]+0.159*[#  28]+0.075*[#  19]
          +0.075*[#  20]+0.074*[#  23]+0.074*[#  24]+0.015*[#  11]+0.015*[#  12]
          +0.015*[#  15]+0.015*[#  16]
    |psi|^2 = 0.997
==== e(  16) =    -2.19883 eV ==== 
     psi = 0.159*[#  31]+0.159*[#  32]+0.159*[#  27]+0.159*[#  28]+0.075*[#  19]
          +0.075*[#  20]+0.074*[#  23]+0.074*[#  24]+0.015*[#  11]+0.015*[#  12]
          +0.015*[#  15]+0.015*[#  16]
    |psi|^2 = 0.997
==== e(  17) =     4.31064 eV ==== 
     psi = 0.003*[#   2]+0.003*[#   6]+0.002*[#  30]+0.002*[#  26]+0.001*[#   1]
          +0.001*[#   5]
    |psi|^2 = 0.015
==== e(  18) =     4.39332 eV ==== 
     psi = 0.004*[#  30]+0.003*[#  26]+0.002*[#   2]+0.002*[#   6]+0.001*[#  25]
          +0.001*[#  29]
    |psi|^2 = 0.017
==== e(  19) =     4.97270 eV ==== 
 
    |psi|^2 = 0.003
==== e(  20) =     5.61207 eV ==== 
 
    |psi|^2 = 0.004
==== e(  21) =     5.87908 eV ==== 
     psi = 0.002*[#   9]+0.002*[#  13]+0.002*[#  17]+0.002*[#   6]+0.002*[#  21]
          +0.002*[#  26]+0.001*[#   2]+0.001*[#  30]
    |psi|^2 = 0.016
==== e(  22) =     6.78284 eV ==== 
     psi = 0.002*[#   2]+0.002*[#   6]+0.002*[#  26]+0.002*[#  30]
    |psi|^2 = 0.013
==== e(  23) =     7.22759 eV ==== 
     psi = 0.001*[#  10]+0.001*[#  14]+0.001*[#  22]+0.001*[#  18]
    |psi|^2 = 0.011
==== e(  24) =     8.49257 eV ==== 
     psi = 0.004*[#   6]+0.004*[#  26]+0.004*[#   2]+0.004*[#  30]+0.001*[#  10]
          +0.001*[#  14]+0.001*[#  18]+0.001*[#  22]
    |psi|^2 = 0.023
==== e(  25) =     8.90124 eV ==== 
     psi = 0.001*[#  10]+0.001*[#  14]+0.001*[#  18]+0.001*[#  22]
    |psi|^2 = 0.009
==== e(  26) =     9.19411 eV ==== 
     psi = 0.096*[#  11]+0.096*[#  12]+0.096*[#  15]+0.096*[#  16]+0.083*[#   7]
          +0.083*[#   8]+0.083*[#   3]+0.083*[#   4]+0.049*[#  19]+0.049*[#  20]
          +0.049*[#  23]+0.049*[#  24]+0.009*[#  27]+0.009*[#  28]+0.009*[#  31]
          +0.009*[#  32]
    |psi|^2 = 0.950
==== e(  27) =     9.19691 eV ==== 
     psi = 0.096*[#  11]+0.096*[#  12]+0.096*[#  15]+0.096*[#  16]+0.084*[#   7]
          +0.084*[#   8]+0.083*[#   3]+0.083*[#   4]+0.049*[#  19]+0.049*[#  20]
          +0.049*[#  23]+0.049*[#  24]+0.009*[#  27]+0.009*[#  28]+0.009*[#  31]
          +0.009*[#  32]
    |psi|^2 = 0.950
==== e(  28) =     9.20966 eV ==== 
     psi = 0.094*[#   3]+0.094*[#   4]+0.094*[#   7]+0.094*[#   8]+0.091*[#  23]
          +0.091*[#  24]+0.091*[#  19]+0.091*[#  20]+0.053*[#  27]+0.053*[#  28]
          +0.052*[#  31]+0.052*[#  32]
    |psi|^2 = 0.950
==== e(  29) =     9.21234 eV ==== 
     psi = 0.094*[#   3]+0.094*[#   4]+0.093*[#   7]+0.093*[#   8]+0.092*[#  23]
          +0.092*[#  24]+0.091*[#  19]+0.091*[#  20]+0.053*[#  27]+0.053*[#  28]
          +0.052*[#  31]+0.052*[#  32]
    |psi|^2 = 0.950
==== e(  30) =     9.22885 eV ==== 
     psi = 0.096*[#  15]+0.096*[#  16]+0.096*[#  11]+0.096*[#  12]+0.089*[#  31]
          +0.089*[#  32]+0.089*[#  27]+0.089*[#  28]+0.053*[#   3]+0.053*[#   4]
          +0.053*[#   7]+0.053*[#   8]
    |psi|^2 = 0.950

 k =   0.0111111111  0.0064150030  0.0000000000
==== e(   1) =   -18.89077 eV ==== 
     psi = 0.187*[#   9]+0.187*[#  13]+0.170*[#  17]+0.170*[#  21]+0.077*[#   1]
          +0.077*[#   5]+0.055*[#  25]+0.055*[#  29]
    |psi|^2 = 0.981
==== e(   2) =   -18.80882 eV ==== 
     psi = 0.186*[#   5]+0.185*[#   1]+0.161*[#  25]+0.161*[#  29]+0.090*[#  17]
          +0.090*[#  21]+0.052*[#   9]+0.052*[#  13]+0.001*[#  10]+0.001*[#  14]
          +0.001*[#  18]+0.001*[#  22]
    |psi|^2 = 0.984
==== e(   3) =   -18.70523 eV ==== 
     psi = 0.185*[#  25]+0.185*[#  29]+0.173*[#   1]+0.173*[#   5]+0.090*[#   9]
          +0.090*[#  13]+0.043*[#  17]+0.043*[#  21]+0.001*[#  18]+0.001*[#  22]
          +0.001*[#  10]
    |psi|^2 = 0.988
==== e(   4) =   -18.62091 eV ==== 
     psi = 0.187*[#  17]+0.187*[#  21]+0.161*[#   9]+0.161*[#  13]+0.090*[#  25]
          +0.090*[#  29]+0.056*[#   1]+0.056*[#   5]
    |psi|^2 = 0.991
==== e(   5) =    -7.64308 eV ==== 
     psi = 0.175*[#  14]+0.174*[#  10]+0.174*[#  18]+0.174*[#  22]+0.065*[#   6]
          +0.065*[#   2]+0.064*[#  26]+0.063*[#  30]
    |psi|^2 = 0.956
==== e(   6) =    -7.16794 eV ==== 
     psi = 0.173*[#   6]+0.172*[#   2]+0.167*[#  26]+0.166*[#  30]+0.070*[#  22]
          +0.070*[#  18]+0.066*[#  10]+0.066*[#  14]+0.001*[#   9]+0.002*[#  13]
          +0.001*[#  17]+0.001*[#  21]
    |psi|^2 = 0.957
==== e(   7) =    -6.52664 eV ==== 
     psi = 0.175*[#   2]+0.175*[#   6]+0.174*[#  26]+0.174*[#  30]+0.070*[#  14]
          +0.069*[#  10]+0.061*[#  18]+0.060*[#  22]+0.002*[#   9]+0.002*[#  17]
          +0.002*[#  21]+0.001*[#  13]
    |psi|^2 = 0.965
==== e(   8) =    -5.95180 eV ==== 
     psi = 0.179*[#  22]+0.179*[#  18]+0.173*[#  10]+0.172*[#  14]+0.073*[#  30]
          +0.073*[#  26]+0.066*[#   2]+0.066*[#   6]
    |psi|^2 = 0.983
==== e(   9) =    -2.23529 eV ==== 
     psi = 0.197*[#   7]+0.197*[#   8]+0.196*[#   3]+0.196*[#   4]+0.046*[#  11]
          +0.046*[#  12]+0.046*[#  15]+0.046*[#  16]+0.006*[#  19]+0.006*[#  20]
          +0.006*[#  23]+0.006*[#  24]
    |psi|^2 = 0.997
==== e(  10) =    -2.22955 eV ==== 
     psi = 0.197*[#   7]+0.197*[#   8]+0.196*[#   3]+0.196*[#   4]+0.046*[#  11]
          +0.046*[#  12]+0.046*[#  15]+0.046*[#  16]+0.006*[#  19]+0.006*[#  20]
          +0.006*[#  23]+0.006*[#  24]
    |psi|^2 = 0.997
==== e(  11) =    -2.22581 eV ==== 
     psi = 0.124*[#  19]+0.124*[#  20]+0.124*[#  23]+0.124*[#  24]+0.065*[#  15]
          +0.065*[#  16]+0.064*[#  11]+0.064*[#  12]+0.037*[#   3]+0.037*[#   4]
          +0.037*[#   7]+0.037*[#   8]+0.023*[#  27]+0.023*[#  28]+0.023*[#  31]
          +0.023*[#  32]
    |psi|^2 = 0.997
==== e(  12) =    -2.22007 eV ==== 
     psi = 0.124*[#  19]+0.124*[#  20]+0.124*[#  23]+0.124*[#  24]+0.065*[#  15]
          +0.065*[#  16]+0.065*[#  11]+0.065*[#  12]+0.037*[#   3]+0.037*[#   4]
          +0.037*[#   7]+0.037*[#   8]+0.023*[#  27]+0.023*[#  28]+0.023*[#  31]
          +0.023*[#  32]
    |psi|^2 = 0.997
==== e(  13) =    -2.21745 eV ==== 
     psi = 0.123*[#  11]+0.123*[#  12]+0.123*[#  15]+0.123*[#  16]+0.068*[#  27]
          +0.068*[#  28]+0.068*[#  31]+0.068*[#  32]+0.044*[#  23]+0.044*[#  24]
          +0.043*[#  19]+0.043*[#  20]+0.015*[#   3]+0.015*[#   4]+0.015*[#   7]
          +0.015*[#   8]
    |psi|^2 = 0.997
==== e(  14) =    -2.21175 eV ==== 
     psi = 0.123*[#  11]+0.123*[#  12]+0.123*[#  15]+0.123*[#  16]+0.068*[#  27]
          +0.068*[#  28]+0.068*[#  31]+0.068*[#  32]+0.044*[#  23]+0.044*[#  24]
          +0.043*[#  19]+0.043*[#  20]+0.015*[#   3]+0.015*[#   4]+0.015*[#   7]
          +0.015*[#   8]
    |psi|^2 = 0.997
==== e(  15) =    -2.20934 eV ==== 
     psi = 0.158*[#  31]+0.158*[#  32]+0.158*[#  27]+0.158*[#  28]+0.075*[#  19]
          +0.075*[#  20]+0.075*[#  23]+0.075*[#  24]+0.015*[#  11]+0.015*[#  12]
          +0.015*[#  15]+0.015*[#  16]
    |psi|^2 = 0.997
==== e(  16) =    -2.20365 eV ==== 
     psi = 0.159*[#  31]+0.159*[#  32]+0.158*[#  27]+0.158*[#  28]+0.075*[#  19]
          +0.075*[#  20]+0.075*[#  23]+0.075*[#  24]+0.015*[#  11]+0.015*[#  12]
          +0.015*[#  15]+0.015*[#  16]
    |psi|^2 = 0.997
==== e(  17) =     4.31361 eV ==== 
     psi = 0.003*[#   2]+0.003*[#   6]+0.002*[#  30]+0.002*[#  26]+0.001*[#   1]
          +0.001*[#   5]
    |psi|^2 = 0.015
==== e(  18) =     4.39630 eV ==== 
     psi = 0.004*[#  30]+0.003*[#  26]+0.002*[#   2]+0.002*[#   6]+0.001*[#  25]
          +0.001*[#  29]
    |psi|^2 = 0.017
==== e(  19) =     4.97573 eV ==== 
 
    |psi|^2 = 0.003
==== e(  20) =     5.61509 eV ==== 
 
    |psi|^2 = 0.005
==== e(  21) =     5.88184 eV ==== 
     psi = 0.002*[#   6]+0.002*[#   9]+0.002*[#  13]+0.002*[#  17]+0.002*[#  21]
          +0.002*[#  26]+0.001*[#   2]+0.001*[#  30]
    |psi|^2 = 0.016
==== e(  22) =     6.78574 eV ==== 
     psi = 0.002*[#   2]+0.002*[#   6]+0.002*[#  26]+0.002*[#  30]
    |psi|^2 = 0.013
==== e(  23) =     7.23040 eV ==== 
     psi = 0.001*[#  10]+0.001*[#  14]+0.001*[#  22]+0.001*[#  18]
    |psi|^2 = 0.011
==== e(  24) =     8.49515 eV ==== 
     psi = 0.004*[#   6]+0.004*[#  26]+0.004*[#   2]+0.004*[#  30]+0.001*[#  10]
          +0.001*[#  14]+0.001*[#  18]+0.001*[#  22]
    |psi|^2 = 0.023
==== e(  25) =     8.90379 eV ==== 
     psi = 0.001*[#  10]+0.001*[#  14]+0.001*[#  18]+0.001*[#  22]
    |psi|^2 = 0.009
==== e(  26) =     9.19540 eV ==== 
     psi = 0.095*[#  11]+0.095*[#  12]+0.095*[#  15]+0.095*[#  16]+0.082*[#   7]
          +0.082*[#   8]+0.082*[#   3]+0.082*[#   4]+0.050*[#  19]+0.050*[#  20]
          +0.050*[#  23]+0.050*[#  24]+0.010*[#  27]+0.010*[#  28]+0.009*[#  31]
          +0.009*[#  32]
    |psi|^2 = 0.949
==== e(  27) =     9.20660 eV ==== 
     psi = 0.096*[#  11]+0.096*[#  12]+0.096*[#  15]+0.096*[#  16]+0.084*[#   7]
          +0.084*[#   8]+0.084*[#   3]+0.084*[#   4]+0.049*[#  19]+0.049*[#  20]
          +0.049*[#  23]+0.049*[#  24]+0.009*[#  27]+0.009*[#  28]+0.009*[#  31]
          +0.009*[#  32]
    |psi|^2 = 0.950
==== e(  28) =     9.21131 eV ==== 
     psi = 0.094*[#   3]+0.094*[#   4]+0.094*[#   7]+0.094*[#   8]+0.090*[#  23]
          +0.090*[#  24]+0.090*[#  19]+0.090*[#  20]+0.052*[#  27]+0.052*[#  28]
          +0.052*[#  31]+0.052*[#  32]
    |psi|^2 = 0.949
==== e(  29) =     9.22204 eV ==== 
     psi = 0.094*[#   3]+0.094*[#   4]+0.093*[#   7]+0.093*[#   8]+0.092*[#  23]
          +0.092*[#  24]+0.091*[#  19]+0.091*[#  20]+0.052*[#  27]+0.052*[#  28]
          +0.052*[#  31]+0.052*[#  32]
    |psi|^2 = 0.950
==== e(  30) =     9.23055 eV ==== 
     psi = 0.097*[#  15]+0.097*[#  16]+0.097*[#  11]+0.097*[#  12]+0.087*[#  31]
          +0.087*[#  32]+0.087*[#  27]+0.087*[#  28]+0.053*[#   3]+0.053*[#   4]
          +0.053*[#   7]+0.053*[#   8]
    |psi|^2 = 0.950

 k =   0.0166666667  0.0096225045  0.0000000000
==== e(   1) =   -18.88708 eV ==== 
     psi = 0.186*[#   9]+0.186*[#  13]+0.170*[#  17]+0.170*[#  21]+0.076*[#   1]
          +0.076*[#   5]+0.055*[#  25]+0.055*[#  29]
    |psi|^2 = 0.981
==== e(   2) =   -18.80514 eV ==== 
     psi = 0.185*[#   5]+0.185*[#   1]+0.161*[#  25]+0.161*[#  29]+0.090*[#  17]
          +0.090*[#  21]+0.052*[#   9]+0.052*[#  13]+0.001*[#  10]+0.001*[#  14]
          +0.001*[#  18]+0.001*[#  22]
    |psi|^2 = 0.984
==== e(   3) =   -18.70158 eV ==== 
     psi = 0.185*[#  25]+0.184*[#  29]+0.173*[#   1]+0.173*[#   5]+0.090*[#   9]
          +0.090*[#  13]+0.043*[#  17]+0.043*[#  21]+0.001*[#  18]+0.001*[#  22]
          +0.001*[#  10]
    |psi|^2 = 0.988
==== e(   4) =   -18.61728 eV ==== 
     psi = 0.187*[#  17]+0.187*[#  21]+0.161*[#   9]+0.161*[#  13]+0.090*[#  25]
          +0.090*[#  29]+0.056*[#   1]+0.056*[#   5]
    |psi|^2 = 0.991
==== e(   5) =    -7.63859 eV ==== 
     psi = 0.175*[#  14]+0.174*[#  10]+0.174*[#  18]+0.174*[#  22]+0.065*[#   6]
          +0.065*[#   2]+0.064*[#  26]+0.063*[#  30]
    |psi|^2 = 0.956
==== e(   6) =    -7.16351 eV ==== 
     psi = 0.173*[#   6]+0.172*[#   2]+0.167*[#  26]+0.166*[#  30]+0.070*[#  22]
          +0.070*[#  18]+0.066*[#  10]+0.066*[#  14]+0.001*[#   9]+0.002*[#  13]
          +0.001*[#  17]+0.001*[#  21]
    |psi|^2 = 0.957
==== e(   7) =    -6.52230 eV ==== 
     psi = 0.175*[#   2]+0.175*[#   6]+0.174*[#  26]+0.174*[#  30]+0.070*[#  14]
          +0.069*[#  10]+0.061*[#  18]+0.060*[#  22]+0.002*[#   9]+0.002*[#  17]
          +0.002*[#  21]+0.001*[#  13]
    |psi|^2 = 0.965
==== e(   8) =    -5.94755 eV ==== 
     psi = 0.179*[#  22]+0.179*[#  18]+0.173*[#  10]+0.172*[#  14]+0.073*[#  30]
          +0.073*[#  26]+0.066*[#   2]+0.066*[#   6]
    |psi|^2 = 0.983
==== e(   9) =    -2.25065 eV ==== 
     psi = 0.195*[#   7]+0.195*[#   8]+0.194*[#   3]+0.194*[#   4]+0.048*[#  11]
          +0.048*[#  12]+0.047*[#  15]+0.047*[#  16]+0.007*[#  19]+0.007*[#  20]
          +0.007*[#  23]+0.007*[#  24]
    |psi|^2 = 0.997
==== e(  10) =    -2.24115 eV ==== 
     psi = 0.125*[#  19]+0.125*[#  20]+0.125*[#  23]+0.125*[#  24]+0.062*[#  15]
          +0.062*[#  16]+0.062*[#  11]+0.062*[#  12]+0.039*[#   3]+0.039*[#   4]
          +0.039*[#   7]+0.039*[#   8]+0.024*[#  27]+0.024*[#  28]+0.023*[#  31]
          +0.023*[#  32]
    |psi|^2 = 0.997
==== e(  11) =    -2.23775 eV ==== 
     psi = 0.196*[#   7]+0.196*[#   8]+0.195*[#   3]+0.195*[#   4]+0.047*[#  11]
          +0.047*[#  12]+0.047*[#  15]+0.047*[#  16]+0.007*[#  19]+0.007*[#  20]
          +0.007*[#  23]+0.007*[#  24]
    |psi|^2 = 0.997
==== e(  12) =    -2.23265 eV ==== 
     psi = 0.124*[#  11]+0.124*[#  12]+0.123*[#  15]+0.123*[#  16]+0.069*[#  27]
          +0.069*[#  28]+0.069*[#  31]+0.069*[#  32]+0.041*[#  23]+0.041*[#  24]
          +0.041*[#  19]+0.041*[#  20]+0.015*[#   3]+0.015*[#   4]+0.015*[#   7]
          +0.015*[#   8]
    |psi|^2 = 0.997
==== e(  13) =    -2.22826 eV ==== 
     psi = 0.125*[#  19]+0.125*[#  20]+0.125*[#  23]+0.125*[#  24]+0.064*[#  15]
          +0.064*[#  16]+0.063*[#  11]+0.063*[#  12]+0.038*[#   3]+0.038*[#   4]
          +0.038*[#   7]+0.038*[#   8]+0.023*[#  27]+0.023*[#  28]+0.023*[#  31]
          +0.023*[#  32]
    |psi|^2 = 0.997
==== e(  14) =    -2.22445 eV ==== 
     psi = 0.156*[#  31]+0.156*[#  32]+0.156*[#  27]+0.156*[#  28]+0.077*[#  19]
          +0.077*[#  20]+0.076*[#  23]+0.076*[#  24]+0.016*[#  11]+0.016*[#  12]
          +0.016*[#  15]+0.016*[#  16]
    |psi|^2 = 0.997
==== e(  15) =    -2.21982 eV ==== 
     psi = 0.124*[#  11]+0.124*[#  12]+0.123*[#  15]+0.123*[#  16]+0.069*[#  27]
          +0.069*[#  28]+0.069*[#  31]+0.069*[#  32]+0.042*[#  23]+0.042*[#  24]
          +0.042*[#  19]+0.042*[#  20]+0.015*[#   3]+0.015*[#   4]+0.015*[#   7]
          +0.015*[#   8]
    |psi|^2 = 0.997
==== e(  16) =    -2.21166 eV ==== 
     psi = 0.157*[#  31]+0.157*[#  32]+0.157*[#  27]+0.157*[#  28]+0.076*[#  19]
          +0.076*[#  20]+0.076*[#  23]+0.076*[#  24]+0.016*[#  11]+0.016*[#  12]
          +0.015*[#  15]+0.015*[#  16]
    |psi|^2 = 0.997
==== e(  17) =     4.31857 eV ==== 
     psi = 0.003*[#   2]+0.003*[#   6]+0.002*[#  30]+0.002*[#  26]+0.001*[#   1]
          +0.001*[#   5]
    |psi|^2 = 0.016
==== e(  18) =     4.40128 eV ==== 
     psi = 0.004*[#  30]+0.003*[#  26]+0.002*[#   2]+0.002*[#   6]+0.001*[#  25]
          +0.001*[#  29]
    |psi|^2 = 0.017
==== e(  19) =     4.98079 eV ==== 
 
    |psi|^2 = 0.003
==== e(  20) =     5.62012 eV ==== 
 
    |psi|^2 = 0.005
==== e(  21) =     5.88645 eV ==== 
     psi = 0.002*[#   6]+0.002*[#   9]+0.002*[#  13]+0.002*[#  17]+0.002*[#  21]
          +0.002*[#  26]+0.001*[#   2]+0.001*[#  30]
    |psi|^2 = 0.016
==== e(  22) =     6.79057 eV ==== 
     psi = 0.002*[#   2]+0.002*[#   6]+0.002*[#  26]+0.002*[#  30]
    |psi|^2 = 0.013
==== e(  23) =     7.23508 eV ==== 
     psi = 0.001*[#  10]+0.001*[#  14]+0.001*[#  22]+0.001*[#  18]
    |psi|^2 = 0.011
==== e(  24) =     8.49945 eV ==== 
     psi = 0.004*[#   6]+0.004*[#  26]+0.004*[#   2]+0.004*[#  30]+0.001*[#  10]
          +0.001*[#  14]+0.001*[#  18]+0.001*[#  22]
    |psi|^2 = 0.023
==== e(  25) =     8.90803 eV ==== 
     psi = 0.001*[#  10]+0.001*[#  14]+0.001*[#  18]+0.001*[#  22]
    |psi|^2 = 0.010
==== e(  26) =     9.19752 eV ==== 
     psi = 0.095*[#  11]+0.095*[#  12]+0.095*[#  15]+0.095*[#  16]+0.081*[#   7]
          +0.081*[#   8]+0.081*[#   3]+0.081*[#   4]+0.051*[#  19]+0.051*[#  20]
          +0.051*[#  23]+0.051*[#  24]+0.010*[#  27]+0.010*[#  28]+0.010*[#  31]
          +0.010*[#  32]
    |psi|^2 = 0.949
==== e(  27) =     9.21402 eV ==== 
     psi = 0.096*[#   3]+0.096*[#   4]+0.096*[#   7]+0.096*[#   8]+0.088*[#  23]
          +0.088*[#  24]+0.088*[#  19]+0.088*[#  20]+0.053*[#  27]+0.053*[#  28]
          +0.052*[#  31]+0.052*[#  32]
    |psi|^2 = 0.947
==== e(  28) =     9.22273 eV ==== 
     psi = 0.096*[#  11]+0.096*[#  12]+0.096*[#  15]+0.096*[#  16]+0.084*[#   7]
          +0.084*[#   8]+0.083*[#   3]+0.083*[#   4]+0.049*[#  19]+0.049*[#  20]
          +0.049*[#  23]+0.049*[#  24]+0.009*[#  27]+0.009*[#  28]+0.009*[#  31]
          +0.009*[#  32]
    |psi|^2 = 0.950
==== e(  29) =     9.23334 eV ==== 
     psi = 0.098*[#  15]+0.098*[#  16]+0.098*[#  11]+0.098*[#  12]+0.086*[#  31]
          +0.086*[#  32]+0.086*[#  27]+0.086*[#  28]+0.053*[#   3]+0.053*[#   4]
          +0.053*[#   7]+0.053*[#   8]
    |psi|^2 = 0.949
==== e(  30) =     9.23817 eV ==== 
     psi = 0.094*[#   3]+0.094*[#   4]+0.094*[#   7]+0.094*[#   8]+0.091*[#  23]
          +0.091*[#  24]+0.091*[#  19]+0.091*[#  20]+0.053*[#  27]+0.053*[#  28]
          +0.053*[#  31]+0.053*[#  32]
    |psi|^2 = 0.950

 k =   0.0222222222  0.0128300060  0.0000000000
==== e(   1) =   -18.88191 eV ==== 
     psi = 0.186*[#   9]+0.186*[#  13]+0.170*[#  17]+0.170*[#  21]+0.076*[#   1]
          +0.076*[#   5]+0.055*[#  25]+0.055*[#  29]
    |psi|^2 = 0.981
==== e(   2) =   -18.80000 eV ==== 
     psi = 0.185*[#   5]+0.185*[#   1]+0.161*[#  25]+0.160*[#  29]+0.089*[#  17]
          +0.090*[#  21]+0.052*[#   9]+0.052*[#  13]+0.001*[#  10]+0.001*[#  14]
          +0.001*[#  18]+0.001*[#  22]
    |psi|^2 = 0.984
==== e(   3) =   -18.69646 eV ==== 
     psi = 0.184*[#  25]+0.184*[#  29]+0.172*[#   1]+0.172*[#   5]+0.090*[#   9]
          +0.090*[#  13]+0.043*[#  17]+0.043*[#  21]+0.001*[#  18]+0.001*[#  22]
          +0.001*[#  10]
    |psi|^2 = 0.988
==== e(   4) =   -18.61219 eV ==== 
     psi = 0.186*[#  17]+0.186*[#  21]+0.161*[#   9]+0.161*[#  13]+0.090*[#  25]
          +0.090*[#  29]+0.056*[#   1]+0.056*[#   5]
    |psi|^2 = 0.991
==== e(   5) =    -7.63231 eV ==== 
     psi = 0.175*[#  14]+0.174*[#  10]+0.174*[#  18]+0.174*[#  22]+0.065*[#   6]
          +0.065*[#   2]+0.064*[#  26]+0.063*[#  30]
    |psi|^2 = 0.956
==== e(   6) =    -7.15731 eV ==== 
     psi = 0.173*[#   6]+0.172*[#   2]+0.167*[#  26]+0.166*[#  30]+0.070*[#  22]
          +0.070*[#  18]+0.066*[#  10]+0.066*[#  14]+0.001*[#   9]+0.002*[#  13]
          +0.001*[#  17]+0.001*[#  21]
    |psi|^2 = 0.957
==== e(   7) =    -6.51622 eV ==== 
     psi = 0.175*[#   2]+0.175*[#   6]+0.174*[#  26]+0.174*[#  30]+0.070*[#  14]
          +0.069*[#  10]+0.061*[#  18]+0.060*[#  22]+0.002*[#   9]+0.002*[#  17]
          +0.002*[#  21]+0.001*[#  13]
    |psi|^2 = 0.965
==== e(   8) =    -5.94160 eV ==== 
     psi = 0.179*[#  22]+0.179*[#  18]+0.173*[#  10]+0.172*[#  14]+0.073*[#  30]
          +0.073*[#  26]+0.066*[#   2]+0.066*[#   6]
    |psi|^2 = 0.983
==== e(   9) =    -2.27208 eV ==== 
     psi = 0.192*[#   7]+0.192*[#   8]+0.191*[#   3]+0.191*[#   4]+0.050*[#  11]
          +0.050*[#  12]+0.049*[#  15]+0.049*[#  16]+0.007*[#  19]+0.007*[#  20]
          +0.007*[#  23]+0.007*[#  24]
    |psi|^2 = 0.997
==== e(  10) =    -2.26257 eV ==== 
     psi = 0.125*[#  19]+0.125*[#  20]+0.125*[#  23]+0.125*[#  24]+0.059*[#  15]
          +0.059*[#  16]+0.059*[#  11]+0.059*[#  12]+0.040*[#   3]+0.040*[#   4]
          +0.040*[#   7]+0.040*[#   8]+0.025*[#  27]+0.025*[#  28]+0.024*[#  31]
          +0.024*[#  32]
    |psi|^2 = 0.997
==== e(  11) =    -2.25387 eV ==== 
     psi = 0.124*[#  11]+0.124*[#  12]+0.124*[#  15]+0.124*[#  16]+0.071*[#  27]
          +0.071*[#  28]+0.070*[#  31]+0.070*[#  32]+0.038*[#  23]+0.038*[#  24]
          +0.038*[#  19]+0.038*[#  20]+0.016*[#   3]+0.016*[#   4]+0.016*[#   7]
          +0.016*[#   8]
    |psi|^2 = 0.997
==== e(  12) =    -2.24918 eV ==== 
     psi = 0.194*[#   7]+0.194*[#   8]+0.193*[#   3]+0.193*[#   4]+0.048*[#  11]
          +0.048*[#  12]+0.048*[#  15]+0.048*[#  16]+0.007*[#  19]+0.007*[#  20]
          +0.007*[#  23]+0.007*[#  24]
    |psi|^2 = 0.997
==== e(  13) =    -2.24554 eV ==== 
     psi = 0.153*[#  31]+0.153*[#  32]+0.153*[#  27]+0.153*[#  28]+0.078*[#  19]
          +0.078*[#  20]+0.078*[#  23]+0.078*[#  24]+0.017*[#  11]+0.017*[#  12]
          +0.017*[#  15]+0.017*[#  16]
    |psi|^2 = 0.997
==== e(  14) =    -2.23967 eV ==== 
     psi = 0.125*[#  19]+0.125*[#  20]+0.125*[#  23]+0.125*[#  24]+0.061*[#  15]
          +0.061*[#  16]+0.061*[#  11]+0.061*[#  12]+0.039*[#   3]+0.039*[#   4]
          +0.039*[#   7]+0.039*[#   8]+0.024*[#  27]+0.024*[#  28]+0.024*[#  31]
          +0.024*[#  32]
    |psi|^2 = 0.997
==== e(  15) =    -2.23109 eV ==== 
     psi = 0.124*[#  11]+0.124*[#  12]+0.124*[#  15]+0.124*[#  16]+0.070*[#  27]
          +0.070*[#  28]+0.070*[#  31]+0.070*[#  32]+0.040*[#  23]+0.040*[#  24]
          +0.040*[#  19]+0.040*[#  20]+0.016*[#   3]+0.016*[#   4]+0.016*[#   7]
          +0.016*[#   8]
    |psi|^2 = 0.997
==== e(  16) =    -2.22284 eV ==== 
     psi = 0.155*[#  31]+0.155*[#  32]+0.155*[#  27]+0.155*[#  28]+0.077*[#  19]
          +0.077*[#  20]+0.077*[#  23]+0.077*[#  24]+0.016*[#  11]+0.016*[#  12]
          +0.016*[#  15]+0.016*[#  16]
    |psi|^2 = 0.997
==== e(  17) =     4.32550 eV ==== 
     psi = 0.003*[#   2]+0.003*[#   6]+0.002*[#  30]+0.002*[#  26]+0.001*[#   1]
          +0.001*[#   5]
    |psi|^2 = 0.016
==== e(  18) =     4.40824 eV ==== 
     psi = 0.004*[#  30]+0.003*[#  26]+0.002*[#   2]+0.002*[#   6]+0.001*[#  25]
          +0.001*[#  29]
    |psi|^2 = 0.018
==== e(  19) =     4.98786 eV ==== 
 
    |psi|^2 = 0.003
==== e(  20) =     5.62715 eV ==== 
 
    |psi|^2 = 0.005
==== e(  21) =     5.89290 eV ==== 
     psi = 0.002*[#   6]+0.002*[#   9]+0.002*[#  13]+0.002*[#  17]+0.002*[#  21]
          +0.002*[#  26]+0.001*[#   2]+0.001*[#  30]
    |psi|^2 = 0.017
==== e(  22) =     6.79734 eV ==== 
     psi = 0.002*[#   2]+0.002*[#   6]+0.002*[#  26]+0.002*[#  30]
    |psi|^2 = 0.013
==== e(  23) =     7.24164 eV ==== 
     psi = 0.001*[#  10]+0.001*[#  14]+0.001*[#  22]+0.001*[#  18]
    |psi|^2 = 0.011
==== e(  24) =     8.50546 eV ==== 
     psi = 0.004*[#   6]+0.004*[#  26]+0.004*[#   2]+0.004*[#  30]+0.001*[#  10]
          +0.001*[#  14]+0.001*[#  18]+0.001*[#  22]
    |psi|^2 = 0.023
==== e(  25) =     8.91396 eV ==== 
     psi = 0.001*[#  10]+0.001*[#  14]+0.001*[#  18]+0.001*[#  22]
    |psi|^2 = 0.012
==== e(  26) =     9.20040 eV ==== 
     psi = 0.094*[#  11]+0.094*[#  12]+0.093*[#  15]+0.093*[#  16]+0.079*[#   7]
          +0.079*[#   8]+0.079*[#   3]+0.079*[#   4]+0.053*[#  19]+0.053*[#  20]
          +0.053*[#  23]+0.053*[#  24]+0.011*[#  27]+0.011*[#  28]+0.011*[#  31]
          +0.011*[#  32]
    |psi|^2 = 0.948
==== e(  27) =     9.21775 eV ==== 
     psi = 0.097*[#   3]+0.097*[#   4]+0.097*[#   7]+0.097*[#   8]+0.085*[#  23]
          +0.085*[#  24]+0.085*[#  19]+0.085*[#  20]+0.053*[#  27]+0.053*[#  28]
          +0.052*[#  31]+0.052*[#  32]
    |psi|^2 = 0.945
==== e(  28) =     9.23717 eV ==== 
     psi = 0.098*[#  15]+0.098*[#  16]+0.098*[#  11]+0.098*[#  12]+0.085*[#  31]
          +0.085*[#  32]+0.085*[#  27]+0.085*[#  28]+0.053*[#   3]+0.053*[#   4]
          +0.052*[#   7]+0.052*[#   8]
    |psi|^2 = 0.949
==== e(  29) =     9.24526 eV ==== 
     psi = 0.096*[#  11]+0.096*[#  12]+0.096*[#  15]+0.096*[#  16]+0.084*[#   7]
          +0.084*[#   8]+0.083*[#   3]+0.083*[#   4]+0.049*[#  19]+0.049*[#  20]
          +0.049*[#  23]+0.049*[#  24]+0.009*[#  27]+0.009*[#  28]+0.009*[#  31]
          +0.009*[#  32]
    |psi|^2 = 0.949
==== e(  30) =     9.25241 eV ==== 
     psi = 0.098*[#  19]+0.098*[#  20]+0.098*[#  23]+0.098*[#  24]+0.087*[#  31]
          +0.087*[#  32]+0.086*[#  27]+0.086*[#  28]+0.044*[#  11]+0.044*[#  12]
          +0.044*[#  15]+0.044*[#  16]+0.007*[#   3]+0.007*[#   4]+0.007*[#   7]
          +0.007*[#   8]+0.001*[#  17]+0.001*[#  21]
    |psi|^2 = 0.949

 k =   0.0277777778  0.0160375075  0.0000000000
==== e(   1) =   -18.87526 eV ==== 
     psi = 0.186*[#   9]+0.186*[#  13]+0.169*[#  17]+0.169*[#  21]+0.076*[#   1]
          +0.076*[#   5]+0.055*[#  25]+0.055*[#  29]
    |psi|^2 = 0.981
==== e(   2) =   -18.79338 eV ==== 
     psi = 0.184*[#   5]+0.184*[#   1]+0.160*[#  25]+0.160*[#  29]+0.089*[#  17]
          +0.089*[#  21]+0.052*[#   9]+0.052*[#  13]+0.001*[#  10]+0.001*[#  14]
          +0.001*[#  18]+0.001*[#  22]
    |psi|^2 = 0.984
==== e(   3) =   -18.68989 eV ==== 
     psi = 0.184*[#  25]+0.184*[#  29]+0.172*[#   1]+0.172*[#   5]+0.090*[#   9]
          +0.090*[#  13]+0.043*[#  17]+0.043*[#  21]+0.001*[#  18]+0.001*[#  22]
          +0.001*[#  10]
    |psi|^2 = 0.988
==== e(   4) =   -18.60565 eV ==== 
     psi = 0.186*[#  17]+0.186*[#  21]+0.160*[#   9]+0.160*[#  13]+0.089*[#  25]
          +0.089*[#  29]+0.055*[#   1]+0.056*[#   5]
    |psi|^2 = 0.991
==== e(   5) =    -7.62423 eV ==== 
     psi = 0.175*[#  14]+0.174*[#  10]+0.174*[#  18]+0.174*[#  22]+0.065*[#   6]
          +0.065*[#   2]+0.064*[#  26]+0.063*[#  30]
    |psi|^2 = 0.956
==== e(   6) =    -7.14934 eV ==== 
     psi = 0.173*[#   6]+0.172*[#   2]+0.167*[#  26]+0.167*[#  30]+0.070*[#  22]
          +0.070*[#  18]+0.066*[#  10]+0.066*[#  14]+0.001*[#   9]+0.002*[#  13]
          +0.001*[#  17]+0.001*[#  21]
    |psi|^2 = 0.957
==== e(   7) =    -6.50841 eV ==== 
     psi = 0.175*[#   2]+0.175*[#   6]+0.174*[#  26]+0.174*[#  30]+0.070*[#  14]
          +0.069*[#  10]+0.061*[#  18]+0.060*[#  22]+0.001*[#   9]+0.002*[#  17]
          +0.002*[#  21]+0.001*[#  13]
    |psi|^2 = 0.966
==== e(   8) =    -5.93395 eV ==== 
     psi = 0.179*[#  22]+0.179*[#  18]+0.173*[#  10]+0.172*[#  14]+0.073*[#  30]
          +0.073*[#  26]+0.066*[#   2]+0.066*[#   6]
    |psi|^2 = 0.983
==== e(   9) =    -2.29954 eV ==== 
     psi = 0.188*[#   7]+0.188*[#   8]+0.187*[#   3]+0.187*[#   4]+0.052*[#  11]
          +0.052*[#  12]+0.052*[#  15]+0.052*[#  16]+0.008*[#  19]+0.008*[#  20]
          +0.008*[#  23]+0.008*[#  24]+0.001*[#   1]+0.001*[#   5]
    |psi|^2 = 0.997
==== e(  10) =    -2.28999 eV ==== 
     psi = 0.125*[#  19]+0.125*[#  20]+0.125*[#  23]+0.125*[#  24]+0.055*[#  15]
          +0.055*[#  16]+0.055*[#  11]+0.055*[#  12]+0.042*[#   3]+0.042*[#   4]
          +0.042*[#   7]+0.042*[#   8]+0.026*[#  27]+0.026*[#  28]+0.026*[#  31]
          +0.026*[#  32]
    |psi|^2 = 0.997
==== e(  11) =    -2.28104 eV ==== 
     psi = 0.124*[#  11]+0.124*[#  12]+0.124*[#  15]+0.124*[#  16]+0.072*[#  27]
          +0.072*[#  28]+0.072*[#  31]+0.072*[#  32]+0.035*[#  23]+0.035*[#  24]
          +0.035*[#  19]+0.035*[#  20]+0.017*[#   3]+0.017*[#   4]+0.017*[#   7]
          +0.017*[#   8]
    |psi|^2 = 0.997
==== e(  12) =    -2.27256 eV ==== 
     psi = 0.150*[#  31]+0.150*[#  32]+0.150*[#  27]+0.150*[#  28]+0.080*[#  19]
          +0.080*[#  20]+0.080*[#  23]+0.080*[#  24]+0.018*[#  11]+0.018*[#  12]
          +0.018*[#  15]+0.018*[#  16]+0.001*[#  25]+0.001*[#  29]+0.001*[#   3]
          +0.001*[#   4]+0.001*[#   7]+0.001*[#   8]
    |psi|^2 = 0.997
==== e(  13) =    -2.26380 eV ==== 
     psi = 0.191*[#   7]+0.191*[#   8]+0.191*[#   3]+0.191*[#   4]+0.050*[#  11]
          +0.050*[#  12]+0.050*[#  15]+0.050*[#  16]+0.008*[#  19]+0.008*[#  20]
          +0.008*[#  23]+0.008*[#  24]
    |psi|^2 = 0.997
==== e(  14) =    -2.25426 eV ==== 
     psi = 0.126*[#  19]+0.126*[#  20]+0.126*[#  23]+0.126*[#  24]+0.058*[#  15]
          +0.058*[#  16]+0.058*[#  11]+0.058*[#  12]+0.041*[#   3]+0.041*[#   4]
          +0.041*[#   7]+0.041*[#   8]+0.025*[#  27]+0.025*[#  28]+0.025*[#  31]
          +0.025*[#  32]
    |psi|^2 = 0.997
==== e(  15) =    -2.24549 eV ==== 
     psi = 0.124*[#  11]+0.124*[#  12]+0.124*[#  15]+0.124*[#  16]+0.071*[#  27]
          +0.071*[#  28]+0.071*[#  31]+0.071*[#  32]+0.038*[#  23]+0.038*[#  24]
          +0.037*[#  19]+0.037*[#  20]+0.016*[#   3]+0.016*[#   4]+0.016*[#   7]
          +0.016*[#   8]
    |psi|^2 = 0.997
==== e(  16) =    -2.23714 eV ==== 
     psi = 0.153*[#  31]+0.153*[#  32]+0.152*[#  27]+0.152*[#  28]+0.079*[#  19]
          +0.079*[#  20]+0.079*[#  23]+0.079*[#  24]+0.017*[#  11]+0.017*[#  12]
          +0.017*[#  15]+0.017*[#  16]
    |psi|^2 = 0.997
==== e(  17) =     4.33441 eV ==== 
     psi = 0.003*[#   2]+0.003*[#   6]+0.002*[#  30]+0.002*[#  26]+0.001*[#   1]
          +0.001*[#   5]
    |psi|^2 = 0.016
==== e(  18) =     4.41719 eV ==== 
     psi = 0.004*[#  30]+0.003*[#  26]+0.002*[#   2]+0.002*[#   6]+0.001*[#  25]
          +0.001*[#  29]
    |psi|^2 = 0.018
==== e(  19) =     4.99696 eV ==== 
 
    |psi|^2 = 0.003
==== e(  20) =     5.63620 eV ==== 
 
    |psi|^2 = 0.005
==== e(  21) =     5.90119 eV ==== 
     psi = 0.002*[#   6]+0.002*[#   9]+0.002*[#  13]+0.002*[#  17]+0.002*[#  21]
          +0.002*[#  26]+0.001*[#   2]+0.001*[#  30]
    |psi|^2 = 0.017
==== e(  22) =     6.80604 eV ==== 
     psi = 0.002*[#   2]+0.002*[#   6]+0.002*[#  26]+0.002*[#  30]
    |psi|^2 = 0.013
==== e(  23) =     7.25007 eV ==== 
     psi = 0.001*[#  10]+0.001*[#  14]+0.001*[#  22]+0.001*[#  18]
    |psi|^2 = 0.011
==== e(  24) =     8.51319 eV ==== 
     psi = 0.004*[#   6]+0.004*[#  26]+0.004*[#   2]+0.004*[#  30]+0.001*[#  10]
          +0.001*[#  14]+0.001*[#  18]+0.001*[#  22]
    |psi|^2 = 0.023
==== e(  25) =     8.92157 eV ==== 
     psi = 0.001*[#  10]+0.001*[#  14]+0.001*[#  18]+0.001*[#  22]
    |psi|^2 = 0.015
==== e(  26) =     9.20397 eV ==== 
     psi = 0.092*[#  11]+0.092*[#  12]+0.092*[#  15]+0.092*[#  16]+0.076*[#   7]
          +0.076*[#   8]+0.076*[#   3]+0.076*[#   4]+0.054*[#  19]+0.054*[#  20]
          +0.054*[#  23]+0.054*[#  24]+0.012*[#  27]+0.012*[#  28]+0.012*[#  31]
          +0.012*[#  32]+0.001*[#   1]+0.001*[#   9]+0.001*[#  13]+0.001*[#   5]
          
    |psi|^2 = 0.947
==== e(  27) =     9.22243 eV ==== 
     psi = 0.099*[#   3]+0.099*[#   4]+0.099*[#   7]+0.099*[#   8]+0.082*[#  23]
          +0.082*[#  24]+0.082*[#  19]+0.082*[#  20]+0.053*[#  27]+0.053*[#  28]
          +0.052*[#  31]+0.052*[#  32]+0.001*[#   1]+0.001*[#   5]+0.001*[#  17]
          +0.001*[#  21]
    |psi|^2 = 0.942
==== e(  28) =     9.24198 eV ==== 
     psi = 0.099*[#  15]+0.099*[#  16]+0.099*[#  11]+0.099*[#  12]+0.084*[#  31]
          +0.084*[#  32]+0.084*[#  27]+0.084*[#  28]+0.053*[#   3]+0.053*[#   4]
          +0.052*[#   7]+0.052*[#   8]+0.002*[#   9]+0.001*[#  13]+0.001*[#  25]
          +0.001*[#  29]
    |psi|^2 = 0.947
==== e(  29) =     9.25701 eV ==== 
     psi = 0.098*[#  19]+0.098*[#  20]+0.098*[#  23]+0.098*[#  24]+0.086*[#  31]
          +0.086*[#  32]+0.086*[#  27]+0.086*[#  28]+0.044*[#  11]+0.044*[#  12]
          +0.043*[#  15]+0.043*[#  16]+0.007*[#   3]+0.007*[#   4]+0.007*[#   7]
          +0.007*[#   8]+0.002*[#  17]+0.002*[#  21]+0.002*[#  25]+0.001*[#  29]
          
    |psi|^2 = 0.948
==== e(  30) =     9.27415 eV ==== 
     psi = 0.096*[#  11]+0.096*[#  12]+0.096*[#  15]+0.096*[#  16]+0.084*[#   7]
          +0.084*[#   8]+0.084*[#   3]+0.084*[#   4]+0.049*[#  19]+0.049*[#  20]
          +0.048*[#  23]+0.048*[#  24]+0.009*[#  27]+0.009*[#  28]+0.009*[#  31]
          +0.009*[#  32]
    |psi|^2 = 0.949

 k =   0.0333333333  0.0192450090  0.0000000000
==== e(   1) =   -18.86713 eV ==== 
     psi = 0.185*[#   9]+0.185*[#  13]+0.169*[#  17]+0.169*[#  21]+0.076*[#   1]
          +0.076*[#   5]+0.055*[#  25]+0.054*[#  29]+0.001*[#  11]+0.001*[#  12]
          +0.001*[#  15]+0.001*[#  16]
    |psi|^2 = 0.981
==== e(   2) =   -18.78529 eV ==== 
     psi = 0.184*[#   5]+0.184*[#   1]+0.160*[#  25]+0.159*[#  29]+0.089*[#  17]
          +0.089*[#  21]+0.052*[#   9]+0.052*[#  13]+0.001*[#  10]+0.001*[#  14]
          +0.001*[#  18]
    |psi|^2 = 0.984
==== e(   3) =   -18.68185 eV ==== 
     psi = 0.183*[#  25]+0.183*[#  29]+0.171*[#   1]+0.172*[#   5]+0.089*[#   9]
          +0.089*[#  13]+0.043*[#  17]+0.043*[#  21]+0.001*[#  18]+0.001*[#  22]
          +0.001*[#  10]
    |psi|^2 = 0.988
==== e(   4) =   -18.59766 eV ==== 
     psi = 0.186*[#  17]+0.186*[#  21]+0.160*[#   9]+0.160*[#  13]+0.089*[#  25]
          +0.089*[#  29]+0.055*[#   1]+0.055*[#   5]
    |psi|^2 = 0.991
==== e(   5) =    -7.61436 eV ==== 
     psi = 0.175*[#  14]+0.174*[#  10]+0.174*[#  18]+0.174*[#  22]+0.065*[#   6]
          +0.065*[#   2]+0.064*[#  26]+0.063*[#  30]
    |psi|^2 = 0.957
==== e(   6) =    -7.13960 eV ==== 
     psi = 0.173*[#   6]+0.172*[#   2]+0.167*[#  26]+0.167*[#  30]+0.070*[#  22]
          +0.070*[#  18]+0.067*[#  10]+0.066*[#  14]+0.001*[#   9]+0.001*[#  13]
          +0.001*[#  17]+0.001*[#  21]
    |psi|^2 = 0.957
==== e(   7) =    -6.49886 eV ==== 
     psi = 0.175*[#   2]+0.175*[#   6]+0.174*[#  26]+0.174*[#  30]+0.070*[#  14]
          +0.069*[#  10]+0.061*[#  18]+0.060*[#  22]+0.001*[#   9]+0.002*[#  17]
          +0.002*[#  21]+0.001*[#  13]
    |psi|^2 = 0.966
==== e(   8) =    -5.92460 eV ==== 
     psi = 0.179*[#  22]+0.179*[#  18]+0.173*[#  10]+0.172*[#  14]+0.073*[#  30]
          +0.073*[#  26]+0.066*[#   2]+0.066*[#   6]
    |psi|^2 = 0.983
==== e(   9) =    -2.33294 eV ==== 
     psi = 0.184*[#   7]+0.184*[#   8]+0.183*[#   3]+0.183*[#   4]+0.055*[#  11]
          +0.055*[#  12]+0.054*[#  15]+0.054*[#  16]+0.009*[#  19]+0.009*[#  20]
          +0.009*[#  23]+0.009*[#  24]+0.002*[#   1]+0.002*[#   5]
    |psi|^2 = 0.997
==== e(  10) =    -2.32334 eV ==== 
     psi = 0.126*[#  19]+0.126*[#  20]+0.126*[#  23]+0.126*[#  24]+0.051*[#  15]
          +0.051*[#  16]+0.050*[#  11]+0.050*[#  12]+0.045*[#   3]+0.045*[#   4]
          +0.045*[#   7]+0.045*[#   8]+0.027*[#  27]+0.027*[#  28]+0.027*[#  31]
          +0.027*[#  32]+0.001*[#  17]+0.001*[#  21]
    |psi|^2 = 0.997
==== e(  11) =    -2.31409 eV ==== 
     psi = 0.124*[#  11]+0.124*[#  12]+0.124*[#  15]+0.124*[#  16]+0.074*[#  27]
          +0.074*[#  28]+0.074*[#  31]+0.074*[#  32]+0.032*[#  23]+0.032*[#  24]
          +0.031*[#  19]+0.031*[#  20]+0.018*[#   3]+0.018*[#   4]+0.018*[#   7]
          +0.018*[#   8]+0.001*[#   9]+0.001*[#  13]
    |psi|^2 = 0.997
==== e(  12) =    -2.30542 eV ==== 
     psi = 0.146*[#  31]+0.146*[#  32]+0.146*[#  27]+0.146*[#  28]+0.082*[#  19]
          +0.082*[#  20]+0.082*[#  23]+0.082*[#  24]+0.019*[#  11]+0.019*[#  12]
          +0.019*[#  15]+0.019*[#  16]+0.002*[#  25]+0.002*[#  29]+0.001*[#   3]
          +0.001*[#   4]+0.001*[#   7]+0.001*[#   8]
    |psi|^2 = 0.997
==== e(  13) =    -2.28154 eV ==== 
     psi = 0.189*[#   7]+0.189*[#   8]+0.188*[#   3]+0.188*[#   4]+0.052*[#  11]
          +0.052*[#  12]+0.052*[#  15]+0.052*[#  16]+0.008*[#  19]+0.008*[#  20]
          +0.008*[#  23]+0.008*[#  24]
    |psi|^2 = 0.997
==== e(  14) =    -2.27197 eV ==== 
     psi = 0.126*[#  19]+0.126*[#  20]+0.126*[#  23]+0.126*[#  24]+0.055*[#  15]
          +0.055*[#  16]+0.054*[#  11]+0.054*[#  12]+0.043*[#   3]+0.043*[#   4]
          +0.043*[#   7]+0.043*[#   8]+0.026*[#  27]+0.026*[#  28]+0.026*[#  31]
          +0.026*[#  32]
    |psi|^2 = 0.997
==== e(  15) =    -2.26299 eV ==== 
     psi = 0.125*[#  11]+0.125*[#  12]+0.125*[#  15]+0.125*[#  16]+0.073*[#  27]
          +0.073*[#  28]+0.073*[#  31]+0.073*[#  32]+0.035*[#  23]+0.035*[#  24]
          +0.034*[#  19]+0.034*[#  20]+0.017*[#   3]+0.017*[#   4]+0.017*[#   7]
          +0.017*[#   8]
    |psi|^2 = 0.997
==== e(  16) =    -2.25450 eV ==== 
     psi = 0.150*[#  31]+0.150*[#  32]+0.150*[#  27]+0.150*[#  28]+0.081*[#  19]
          +0.081*[#  20]+0.080*[#  23]+0.080*[#  24]+0.018*[#  11]+0.018*[#  12]
          +0.018*[#  15]+0.018*[#  16]+0.001*[#   3]+0.001*[#   4]+0.001*[#   7]
          +0.001*[#   8]
    |psi|^2 = 0.997
==== e(  17) =     4.34531 eV ==== 
     psi = 0.003*[#   2]+0.003*[#   6]+0.002*[#  30]+0.002*[#  26]+0.001*[#   1]
          +0.001*[#   5]
    |psi|^2 = 0.017
==== e(  18) =     4.42813 eV ==== 
     psi = 0.004*[#  30]+0.003*[#  26]+0.002*[#   2]+0.002*[#   6]
    |psi|^2 = 0.018
==== e(  19) =     5.00808 eV ==== 
 
    |psi|^2 = 0.003
==== e(  20) =     5.64726 eV ==== 
 
    |psi|^2 = 0.005
==== e(  21) =     5.91133 eV ==== 
     psi = 0.002*[#   6]+0.002*[#   9]+0.002*[#  13]+0.002*[#  17]+0.002*[#  21]
          +0.002*[#  26]+0.001*[#   2]+0.001*[#  30]
    |psi|^2 = 0.018
==== e(  22) =     6.81667 eV ==== 
     psi = 0.002*[#   2]+0.002*[#   6]+0.002*[#  26]+0.002*[#  30]
    |psi|^2 = 0.013
==== e(  23) =     7.26037 eV ==== 
     psi = 0.001*[#  10]+0.001*[#  14]+0.001*[#  22]+0.001*[#  18]
    |psi|^2 = 0.011
==== e(  24) =     8.52264 eV ==== 
     psi = 0.004*[#   6]+0.004*[#  26]+0.004*[#   2]+0.004*[#  30]+0.001*[#  10]
          +0.001*[#  14]+0.001*[#  18]+0.001*[#  22]
    |psi|^2 = 0.023
==== e(  25) =     8.93084 eV ==== 
     psi = 0.001*[#  10]+0.001*[#  14]+0.001*[#  18]+0.001*[#  22]
    |psi|^2 = 0.018
==== e(  26) =     9.20814 eV ==== 
     psi = 0.091*[#  11]+0.091*[#  12]+0.091*[#  15]+0.091*[#  16]+0.074*[#   7]
          +0.074*[#   8]+0.074*[#   3]+0.074*[#   4]+0.056*[#  19]+0.056*[#  20]
          +0.056*[#  23]+0.056*[#  24]+0.014*[#  27]+0.014*[#  28]+0.014*[#  31]
          +0.014*[#  32]+0.002*[#   9]+0.002*[#  13]+0.002*[#   1]+0.001*[#   5]
          +0.001*[#  17]+0.001*[#  21]
    |psi|^2 = 0.946
==== e(  27) =     9.22800 eV ==== 
     psi = 0.101*[#   3]+0.101*[#   4]+0.101*[#   7]+0.101*[#   8]+0.079*[#  23]
          +0.079*[#  24]+0.079*[#  19]+0.079*[#  20]+0.052*[#  27]+0.052*[#  28]
          +0.052*[#  31]+0.052*[#  32]+0.002*[#   1]+0.002*[#   5]+0.002*[#  17]
          +0.001*[#  21]+0.001*[#  29]
    |psi|^2 = 0.939
==== e(  28) =     9.24766 eV ==== 
     psi = 0.100*[#  15]+0.100*[#  16]+0.100*[#  11]+0.100*[#  12]+0.082*[#  31]
          +0.082*[#  32]+0.082*[#  27]+0.082*[#  28]+0.052*[#   3]+0.052*[#   4]
          +0.052*[#   7]+0.052*[#   8]+0.002*[#   9]+0.002*[#  13]+0.002*[#  25]
          +0.002*[#  29]+0.001*[#   5]+0.001*[#   1]
    |psi|^2 = 0.946
==== e(  29) =     9.26247 eV ==== 
     psi = 0.099*[#  19]+0.099*[#  20]+0.099*[#  23]+0.099*[#  24]+0.086*[#  31]
          +0.086*[#  32]+0.085*[#  27]+0.085*[#  28]+0.043*[#  11]+0.043*[#  12]
          +0.043*[#  15]+0.043*[#  16]+0.007*[#   3]+0.007*[#   4]+0.006*[#   7]
          +0.006*[#   8]+0.002*[#  17]+0.002*[#  21]+0.002*[#  25]+0.002*[#  29]
          +0.001*[#   9]+0.001*[#  13]
    |psi|^2 = 0.947
==== e(  30) =     9.30933 eV ==== 
     psi = 0.096*[#  11]+0.096*[#  12]+0.096*[#  15]+0.096*[#  16]+0.084*[#   7]
          +0.084*[#   8]+0.083*[#   3]+0.083*[#   4]+0.049*[#  19]+0.049*[#  20]
          +0.049*[#  23]+0.049*[#  24]+0.009*[#  27]+0.009*[#  28]+0.009*[#  31]
          +0.009*[#  32]
    |psi|^2 = 0.949

 k =   0.0388888889  0.0224525105  0.0000000000
==== e(   1) =   -18.85753 eV ==== 
     psi = 0.184*[#   9]+0.184*[#  13]+0.168*[#  17]+0.168*[#  21]+0.075*[#   1]
          +0.076*[#   5]+0.054*[#  25]+0.054*[#  29]+0.001*[#  11]+0.001*[#  12]
          +0.001*[#  15]+0.001*[#  16]+0.001*[#  19]+0.001*[#  20]+0.001*[#  23]
          +0.001*[#  24]
    |psi|^2 = 0.981
==== e(   2) =   -18.77574 eV ==== 
     psi = 0.183*[#   5]+0.183*[#   1]+0.159*[#  25]+0.159*[#  29]+0.089*[#  17]
          +0.089*[#  21]+0.052*[#   9]+0.051*[#  13]+0.001*[#  14]+0.001*[#   3]
          +0.001*[#   4]+0.001*[#   7]+0.001*[#   8]+0.001*[#  10]+0.001*[#  18]
          +0.001*[#  27]+0.001*[#  28]+0.001*[#  31]+0.001*[#  32]+0.001*[#  22]
          
    |psi|^2 = 0.984
==== e(   3) =   -18.67235 eV ==== 
     psi = 0.183*[#  25]+0.182*[#  29]+0.171*[#   1]+0.171*[#   5]+0.089*[#   9]
          +0.089*[#  13]+0.042*[#  17]+0.042*[#  21]+0.001*[#  18]+0.001*[#  22]
          +0.001*[#   3]+0.001*[#   4]+0.001*[#   7]+0.001*[#   8]+0.001*[#  27]
          +0.001*[#  28]+0.001*[#  31]+0.001*[#  32]+0.001*[#  10]
    |psi|^2 = 0.988
==== e(   4) =   -18.58821 eV ==== 
     psi = 0.185*[#  17]+0.185*[#  21]+0.159*[#   9]+0.159*[#  13]+0.089*[#  25]
          +0.089*[#  29]+0.055*[#   1]+0.055*[#   5]+0.001*[#  19]+0.001*[#  20]
          +0.001*[#  23]+0.001*[#  24]+0.001*[#  11]+0.001*[#  12]+0.001*[#  15]
          +0.001*[#  16]
    |psi|^2 = 0.991
==== e(   5) =    -7.60270 eV ==== 
     psi = 0.175*[#  14]+0.175*[#  10]+0.174*[#  18]+0.174*[#  22]+0.065*[#   6]
          +0.065*[#   2]+0.064*[#  26]+0.063*[#  30]
    |psi|^2 = 0.957
==== e(   6) =    -7.12809 eV ==== 
     psi = 0.173*[#   6]+0.172*[#   2]+0.167*[#  26]+0.167*[#  30]+0.070*[#  22]
          +0.070*[#  18]+0.067*[#  10]+0.066*[#  14]+0.001*[#   9]+0.001*[#  13]
          +0.001*[#  17]+0.001*[#  21]
    |psi|^2 = 0.958
==== e(   7) =    -6.48758 eV ==== 
     psi = 0.175*[#   2]+0.175*[#   6]+0.175*[#  26]+0.175*[#  30]+0.070*[#  14]
          +0.069*[#  10]+0.061*[#  18]+0.060*[#  22]+0.001*[#   9]+0.002*[#  17]
          +0.002*[#  21]+0.001*[#  13]
    |psi|^2 = 0.966
==== e(   8) =    -5.91356 eV ==== 
     psi = 0.179*[#  22]+0.179*[#  18]+0.173*[#  10]+0.173*[#  14]+0.073*[#  30]
          +0.073*[#  26]+0.066*[#   2]+0.066*[#   6]
    |psi|^2 = 0.983
==== e(   9) =    -2.37219 eV ==== 
     psi = 0.179*[#   7]+0.179*[#   8]+0.179*[#   3]+0.179*[#   4]+0.057*[#  11]
          +0.057*[#  12]+0.057*[#  15]+0.057*[#  16]+0.010*[#  19]+0.010*[#  20]
          +0.010*[#  23]+0.010*[#  24]+0.003*[#   1]+0.003*[#   5]
    |psi|^2 = 0.997
==== e(  10) =    -2.36251 eV ==== 
     psi = 0.126*[#  19]+0.126*[#  20]+0.126*[#  23]+0.126*[#  24]+0.048*[#   3]
          +0.048*[#   4]+0.047*[#   7]+0.047*[#   8]+0.046*[#  15]+0.046*[#  16]
          +0.045*[#  11]+0.045*[#  12]+0.029*[#  27]+0.029*[#  28]+0.029*[#  31]
          +0.029*[#  32]+0.002*[#  17]+0.002*[#  21]
    |psi|^2 = 0.997
==== e(  11) =    -2.35292 eV ==== 
     psi = 0.124*[#  11]+0.124*[#  12]+0.124*[#  15]+0.124*[#  16]+0.076*[#  27]
          +0.076*[#  28]+0.076*[#  31]+0.076*[#  32]+0.028*[#  23]+0.028*[#  24]
          +0.027*[#  19]+0.027*[#  20]+0.020*[#   3]+0.020*[#   4]+0.020*[#   7]
          +0.020*[#   8]+0.002*[#   9]+0.002*[#  13]+0.001*[#  25]+0.001*[#  29]
          
    |psi|^2 = 0.997
==== e(  12) =    -2.34404 eV ==== 
     psi = 0.142*[#  31]+0.142*[#  32]+0.142*[#  27]+0.142*[#  28]+0.084*[#  19]
          +0.084*[#  20]+0.084*[#  23]+0.084*[#  24]+0.021*[#  11]+0.021*[#  12]
          +0.021*[#  15]+0.021*[#  16]+0.002*[#  25]+0.002*[#  29]+0.001*[#   3]
          +0.001*[#   4]+0.001*[#   7]+0.001*[#   8]+0.001*[#  17]+0.001*[#  21]
          
    |psi|^2 = 0.997
==== e(  13) =    -2.30234 eV ==== 
     psi = 0.186*[#   7]+0.186*[#   8]+0.185*[#   3]+0.185*[#   4]+0.054*[#  11]
          +0.054*[#  12]+0.054*[#  15]+0.054*[#  16]+0.009*[#  19]+0.009*[#  20]
          +0.009*[#  23]+0.009*[#  24]
    |psi|^2 = 0.997
==== e(  14) =    -2.29273 eV ==== 
     psi = 0.126*[#  19]+0.126*[#  20]+0.126*[#  23]+0.126*[#  24]+0.051*[#  15]
          +0.051*[#  16]+0.051*[#  11]+0.051*[#  12]+0.045*[#   3]+0.045*[#   4]
          +0.045*[#   7]+0.045*[#   8]+0.027*[#  27]+0.027*[#  28]+0.027*[#  31]
          +0.027*[#  32]
    |psi|^2 = 0.997
==== e(  15) =    -2.28350 eV ==== 
     psi = 0.125*[#  11]+0.125*[#  12]+0.125*[#  15]+0.125*[#  16]+0.075*[#  27]
          +0.075*[#  28]+0.074*[#  31]+0.074*[#  32]+0.032*[#  23]+0.032*[#  24]
          +0.031*[#  19]+0.031*[#  20]+0.018*[#   3]+0.018*[#   4]+0.018*[#   7]
          +0.018*[#   8]
    |psi|^2 = 0.997
==== e(  16) =    -2.27487 eV ==== 
     psi = 0.147*[#  31]+0.147*[#  32]+0.147*[#  27]+0.147*[#  28]+0.082*[#  19]
          +0.082*[#  20]+0.082*[#  23]+0.082*[#  24]+0.019*[#  11]+0.019*[#  12]
          +0.019*[#  15]+0.019*[#  16]+0.001*[#   3]+0.001*[#   4]+0.001*[#   7]
          +0.001*[#   8]
    |psi|^2 = 0.997
==== e(  17) =     4.35818 eV ==== 
     psi = 0.003*[#   2]+0.003*[#   6]+0.002*[#  30]+0.002*[#  26]+0.001*[#   1]
          +0.001*[#   5]
    |psi|^2 = 0.017
==== e(  18) =     4.44106 eV ==== 
     psi = 0.003*[#  30]+0.003*[#  26]+0.002*[#   2]+0.002*[#   6]
    |psi|^2 = 0.019
==== e(  19) =     5.02123 eV ==== 
 
    |psi|^2 = 0.003
==== e(  20) =     5.66033 eV ==== 
 
    |psi|^2 = 0.005
==== e(  21) =     5.92330 eV ==== 
     psi = 0.002*[#   6]+0.002*[#   9]+0.002*[#  13]+0.002*[#  17]+0.002*[#  26]
          +0.001*[#   2]+0.002*[#  21]+0.001*[#  30]
    |psi|^2 = 0.018
==== e(  22) =     6.82923 eV ==== 
     psi = 0.002*[#   2]+0.002*[#   6]+0.002*[#  26]+0.002*[#  30]
    |psi|^2 = 0.013
==== e(  23) =     7.27254 eV ==== 
     psi = 0.001*[#  10]+0.001*[#  14]+0.001*[#  22]+0.001*[#  18]
    |psi|^2 = 0.011
==== e(  24) =     8.53380 eV ==== 
     psi = 0.004*[#   6]+0.004*[#  26]+0.004*[#   2]+0.004*[#  30]+0.001*[#  10]
          +0.001*[#  14]+0.001*[#  18]+0.001*[#  22]
    |psi|^2 = 0.023
==== e(  25) =     8.94175 eV ==== 
     psi = 0.001*[#  10]+0.001*[#  14]+0.001*[#  18]+0.001*[#  22]+0.001*[#   3]
          +0.001*[#   4]+0.001*[#   7]+0.001*[#   8]+0.001*[#  27]+0.001*[#  28]
          
    |psi|^2 = 0.022
==== e(  26) =     9.21280 eV ==== 
     psi = 0.089*[#  11]+0.089*[#  12]+0.089*[#  15]+0.089*[#  16]+0.071*[#   7]
          +0.071*[#   8]+0.071*[#   3]+0.071*[#   4]+0.058*[#  19]+0.058*[#  20]
          +0.058*[#  23]+0.058*[#  24]+0.015*[#  27]+0.015*[#  28]+0.015*[#  31]
          +0.015*[#  32]+0.002*[#   9]+0.002*[#  13]+0.002*[#   1]+0.002*[#   5]
          +0.002*[#  21]+0.002*[#  17]
    |psi|^2 = 0.945
==== e(  27) =     9.23436 eV ==== 
     psi = 0.103*[#   3]+0.103*[#   4]+0.103*[#   7]+0.103*[#   8]+0.075*[#  23]
          +0.075*[#  24]+0.075*[#  19]+0.075*[#  20]+0.052*[#  27]+0.052*[#  28]
          +0.052*[#  31]+0.052*[#  32]+0.003*[#   1]+0.003*[#   5]+0.002*[#  17]
          +0.002*[#  21]+0.001*[#  29]+0.001*[#  25]
    |psi|^2 = 0.934
==== e(  28) =     9.25413 eV ==== 
     psi = 0.101*[#  15]+0.101*[#  16]+0.101*[#  11]+0.101*[#  12]+0.080*[#  31]
          +0.080*[#  32]+0.079*[#  27]+0.079*[#  28]+0.052*[#   3]+0.052*[#   4]
          +0.052*[#   7]+0.052*[#   8]+0.003*[#   9]+0.003*[#  13]+0.002*[#  25]
          +0.002*[#  29]+0.002*[#   5]+0.002*[#   1]
    |psi|^2 = 0.944
==== e(  29) =     9.26868 eV ==== 
     psi = 0.100*[#  19]+0.100*[#  20]+0.099*[#  23]+0.099*[#  24]+0.085*[#  31]
          +0.085*[#  32]+0.085*[#  27]+0.085*[#  28]+0.042*[#  11]+0.042*[#  12]
          +0.042*[#  15]+0.042*[#  16]+0.006*[#   3]+0.006*[#   4]+0.006*[#   7]
          +0.006*[#   8]+0.003*[#  17]+0.003*[#  21]+0.003*[#  25]+0.003*[#  29]
          +0.002*[#  13]+0.001*[#   9]
    |psi|^2 = 0.945
==== e(  30) =     9.35074 eV ==== 
     psi = 0.097*[#  11]+0.097*[#  12]+0.096*[#  15]+0.096*[#  16]+0.084*[#   7]
          +0.084*[#   8]+0.084*[#   3]+0.084*[#   4]+0.048*[#  19]+0.048*[#  20]
          +0.048*[#  23]+0.048*[#  24]+0.008*[#  27]+0.008*[#  28]+0.008*[#  31]
          +0.008*[#  32]
    |psi|^2 = 0.949

 k =   0.0444444444  0.0256600120  0.0000000000
==== e(   1) =   -18.84646 eV ==== 
     psi = 0.183*[#   9]+0.183*[#  13]+0.167*[#  17]+0.167*[#  21]+0.075*[#   1]
          +0.075*[#   5]+0.054*[#  25]+0.054*[#  29]+0.002*[#  11]+0.002*[#  12]
          +0.002*[#  15]+0.002*[#  16]+0.002*[#  19]+0.002*[#  20]+0.002*[#  23]
          +0.002*[#  24]
    |psi|^2 = 0.981
==== e(   2) =   -18.76472 eV ==== 
     psi = 0.182*[#   5]+0.182*[#   1]+0.158*[#  25]+0.158*[#  29]+0.088*[#  17]
          +0.088*[#  21]+0.051*[#   9]+0.051*[#  13]+0.002*[#   3]+0.002*[#   4]
          +0.002*[#   7]+0.002*[#   8]+0.001*[#  14]+0.001*[#  27]+0.001*[#  28]
          +0.001*[#  31]+0.001*[#  32]+0.001*[#  10]+0.001*[#  18]+0.001*[#  22]
          
    |psi|^2 = 0.984
==== e(   3) =   -18.66140 eV ==== 
     psi = 0.182*[#  25]+0.182*[#  29]+0.170*[#   1]+0.170*[#   5]+0.089*[#   9]
          +0.089*[#  13]+0.042*[#  17]+0.042*[#  21]+0.002*[#  27]+0.002*[#  28]
          +0.002*[#  31]+0.002*[#  32]+0.001*[#   3]+0.001*[#   4]+0.001*[#   7]
          +0.001*[#   8]+0.001*[#  18]+0.001*[#  22]
    |psi|^2 = 0.988
==== e(   4) =   -18.57731 eV ==== 
     psi = 0.184*[#  17]+0.184*[#  21]+0.159*[#   9]+0.159*[#  13]+0.089*[#  25]
          +0.089*[#  29]+0.055*[#   1]+0.055*[#   5]+0.002*[#  19]+0.002*[#  20]
          +0.002*[#  23]+0.002*[#  24]+0.001*[#  11]+0.001*[#  12]+0.001*[#  15]
          +0.001*[#  16]
    |psi|^2 = 0.991
==== e(   5) =    -7.58924 eV ==== 
     psi = 0.175*[#  14]+0.175*[#  10]+0.174*[#  18]+0.174*[#  22]+0.065*[#   6]
          +0.065*[#   2]+0.064*[#  26]+0.063*[#  30]
    |psi|^2 = 0.957
==== e(   6) =    -7.11482 eV ==== 
     psi = 0.173*[#   6]+0.172*[#   2]+0.167*[#  26]+0.167*[#  30]+0.070*[#  22]
          +0.070*[#  18]+0.067*[#  10]+0.066*[#  14]+0.001*[#   9]+0.001*[#  13]
          +0.001*[#  17]+0.001*[#  21]
    |psi|^2 = 0.958
==== e(   7) =    -6.47458 eV ==== 
     psi = 0.175*[#   2]+0.175*[#   6]+0.175*[#  26]+0.175*[#  30]+0.070*[#  14]
          +0.069*[#  10]+0.061*[#  18]+0.060*[#  22]+0.001*[#   9]+0.002*[#  17]
          +0.002*[#  21]+0.001*[#  13]
    |psi|^2 = 0.966
==== e(   8) =    -5.90083 eV ==== 
     psi = 0.179*[#  22]+0.179*[#  18]+0.173*[#  10]+0.173*[#  14]+0.073*[#  30]
          +0.073*[#  26]+0.066*[#   2]+0.066*[#   6]
    |psi|^2 = 0.983
==== e(   9) =    -2.41717 eV ==== 
     psi = 0.174*[#   7]+0.174*[#   8]+0.173*[#   3]+0.173*[#   4]+0.061*[#  11]
          +0.061*[#  12]+0.060*[#  15]+0.060*[#  16]+0.012*[#  19]+0.012*[#  20]
          +0.012*[#  23]+0.012*[#  24]+0.003*[#   1]+0.004*[#   5]+0.001*[#   9]
          +0.001*[#  13]
    |psi|^2 = 0.997
==== e(  10) =    -2.40740 eV ==== 
     psi = 0.125*[#  19]+0.125*[#  20]+0.125*[#  23]+0.125*[#  24]+0.050*[#   3]
          +0.050*[#   4]+0.050*[#   7]+0.050*[#   8]+0.041*[#  15]+0.041*[#  16]
          +0.040*[#  11]+0.040*[#  12]+0.031*[#  27]+0.031*[#  28]+0.030*[#  31]
          +0.030*[#  32]+0.003*[#  17]+0.003*[#  21]+0.001*[#   1]+0.001*[#   5]
          
    |psi|^2 = 0.997
==== e(  11) =    -2.39743 eV ==== 
     psi = 0.124*[#  11]+0.124*[#  12]+0.123*[#  15]+0.123*[#  16]+0.078*[#  27]
          +0.078*[#  28]+0.078*[#  31]+0.078*[#  32]+0.024*[#  23]+0.024*[#  24]
          +0.024*[#  19]+0.024*[#  20]+0.021*[#   3]+0.021*[#   4]+0.021*[#   7]
          +0.021*[#   8]+0.002*[#   9]+0.002*[#  13]+0.002*[#  25]+0.002*[#  29]
          
    |psi|^2 = 0.997
==== e(  12) =    -2.38830 eV ==== 
     psi = 0.137*[#  27]+0.137*[#  28]+0.137*[#  31]+0.137*[#  32]+0.086*[#  19]
          +0.086*[#  20]+0.086*[#  23]+0.086*[#  24]+0.022*[#  11]+0.022*[#  12]
          +0.022*[#  15]+0.022*[#  16]+0.003*[#  25]+0.003*[#  29]+0.002*[#  17]
          +0.002*[#  21]+0.002*[#   3]+0.002*[#   4]+0.002*[#   7]+0.002*[#   8]
          
    |psi|^2 = 0.997
==== e(  13) =    -2.32612 eV ==== 
     psi = 0.182*[#   7]+0.182*[#   8]+0.182*[#   3]+0.182*[#   4]+0.057*[#  11]
          +0.057*[#  12]+0.056*[#  15]+0.056*[#  16]+0.010*[#  19]+0.010*[#  20]
          +0.010*[#  23]+0.010*[#  24]
    |psi|^2 = 0.997
==== e(  14) =    -2.31645 eV ==== 
     psi = 0.127*[#  19]+0.127*[#  20]+0.127*[#  23]+0.127*[#  24]+0.048*[#  15]
          +0.048*[#  16]+0.047*[#  11]+0.047*[#  12]+0.047*[#   3]+0.047*[#   4]
          +0.047*[#   7]+0.047*[#   8]+0.029*[#  27]+0.029*[#  28]+0.029*[#  31]
          +0.029*[#  32]
    |psi|^2 = 0.997
==== e(  15) =    -2.30697 eV ==== 
     psi = 0.125*[#  11]+0.125*[#  12]+0.125*[#  15]+0.125*[#  16]+0.076*[#  27]
          +0.076*[#  28]+0.076*[#  31]+0.076*[#  32]+0.029*[#  23]+0.029*[#  24]
          +0.029*[#  19]+0.029*[#  20]+0.019*[#   3]+0.019*[#   4]+0.019*[#   7]
          +0.019*[#   8]
    |psi|^2 = 0.997
==== e(  16) =    -2.29816 eV ==== 
     psi = 0.144*[#  31]+0.144*[#  32]+0.144*[#  27]+0.144*[#  28]+0.084*[#  19]
          +0.084*[#  20]+0.084*[#  23]+0.084*[#  24]+0.021*[#  11]+0.021*[#  12]
          +0.020*[#  15]+0.020*[#  16]+0.001*[#   3]+0.001*[#   4]+0.001*[#   7]
          +0.001*[#   8]
    |psi|^2 = 0.997
==== e(  17) =     4.37304 eV ==== 
     psi = 0.003*[#   2]+0.003*[#   6]+0.002*[#  30]+0.002*[#  26]+0.001*[#   1]
          +0.001*[#   5]
    |psi|^2 = 0.018
==== e(  18) =     4.45598 eV ==== 
     psi = 0.003*[#  30]+0.003*[#  26]+0.002*[#   2]+0.002*[#   6]
    |psi|^2 = 0.019
==== e(  19) =     5.03639 eV ==== 
 
    |psi|^2 = 0.003
==== e(  20) =     5.67541 eV ==== 
 
    |psi|^2 = 0.005
==== e(  21) =     5.93713 eV ==== 
     psi = 0.002*[#   6]+0.001*[#   2]+0.002*[#   9]+0.002*[#  13]+0.002*[#  26]
          +0.002*[#  17]+0.001*[#  21]+0.001*[#  30]
    |psi|^2 = 0.019
==== e(  22) =     6.84374 eV ==== 
     psi = 0.002*[#   2]+0.002*[#   6]+0.002*[#  26]+0.002*[#  30]
    |psi|^2 = 0.013
==== e(  23) =     7.28659 eV ==== 
     psi = 0.001*[#  10]+0.001*[#  14]+0.001*[#  22]+0.001*[#  18]
    |psi|^2 = 0.011
==== e(  24) =     8.54668 eV ==== 
     psi = 0.004*[#   6]+0.004*[#  26]+0.004*[#   2]+0.004*[#  30]+0.001*[#  10]
          +0.001*[#  14]+0.001*[#  18]+0.001*[#  22]
    |psi|^2 = 0.024
==== e(  25) =     8.95426 eV ==== 
     psi = 0.002*[#   3]+0.002*[#   4]+0.002*[#   7]+0.002*[#   8]+0.001*[#  10]
          +0.001*[#  14]+0.001*[#  18]+0.001*[#  22]+0.001*[#  27]+0.001*[#  28]
          +0.001*[#  31]+0.001*[#  32]
    |psi|^2 = 0.027
==== e(  26) =     9.21783 eV ==== 
     psi = 0.087*[#  11]+0.087*[#  12]+0.087*[#  15]+0.087*[#  16]+0.068*[#   7]
          +0.068*[#   8]+0.068*[#   3]+0.068*[#   4]+0.060*[#  19]+0.060*[#  20]
          +0.059*[#  23]+0.059*[#  24]+0.017*[#  27]+0.017*[#  28]+0.017*[#  31]
          +0.017*[#  32]+0.003*[#   9]+0.003*[#  13]+0.003*[#   1]+0.002*[#   5]
          +0.002*[#  21]+0.002*[#  17]
    |psi|^2 = 0.943
==== e(  27) =     9.24142 eV ==== 
     psi = 0.104*[#   3]+0.104*[#   4]+0.104*[#   7]+0.104*[#   8]+0.072*[#  23]
          +0.072*[#  24]+0.071*[#  19]+0.071*[#  20]+0.051*[#  27]+0.051*[#  28]
          +0.051*[#  31]+0.051*[#  32]+0.004*[#   1]+0.004*[#   5]+0.003*[#  17]
          +0.002*[#  21]+0.002*[#  29]+0.002*[#  25]+0.001*[#  11]+0.001*[#  12]
          +0.001*[#  15]+0.001*[#  16]
    |psi|^2 = 0.928
==== e(  28) =     9.26124 eV ==== 
     psi = 0.102*[#  15]+0.102*[#  16]+0.102*[#  11]+0.102*[#  12]+0.077*[#  31]
          +0.077*[#  32]+0.077*[#  27]+0.077*[#  28]+0.051*[#   3]+0.051*[#   4]
          +0.051*[#   7]+0.051*[#   8]+0.004*[#   9]+0.004*[#  13]+0.003*[#  25]
          +0.003*[#  29]+0.002*[#   5]+0.002*[#   1]
    |psi|^2 = 0.942
==== e(  29) =     9.27554 eV ==== 
     psi = 0.100*[#  19]+0.100*[#  20]+0.100*[#  23]+0.100*[#  24]+0.085*[#  31]
          +0.085*[#  32]+0.084*[#  27]+0.084*[#  28]+0.041*[#  11]+0.041*[#  12]
          +0.040*[#  15]+0.040*[#  16]+0.006*[#   3]+0.006*[#   4]+0.006*[#   7]
          +0.006*[#   8]+0.004*[#  21]+0.004*[#  17]+0.004*[#  25]+0.004*[#  29]
          +0.002*[#  13]+0.002*[#   9]
    |psi|^2 = 0.944
==== e(  30) =     9.39829 eV ==== 
     psi = 0.097*[#  11]+0.097*[#  12]+0.096*[#  15]+0.096*[#  16]+0.085*[#   7]
          +0.085*[#   8]+0.085*[#   3]+0.085*[#   4]+0.047*[#  19]+0.047*[#  20]
          +0.047*[#  23]+0.047*[#  24]+0.009*[#  27]+0.009*[#  28]+0.009*[#  31]
          +0.009*[#  32]
    |psi|^2 = 0.949

 k =   0.0500000000  0.0288675135  0.0000000000
==== e(   1) =   -18.83391 eV ==== 
     psi = 0.183*[#   9]+0.183*[#  13]+0.166*[#  17]+0.166*[#  21]+0.075*[#   1]
          +0.075*[#   5]+0.054*[#  25]+0.054*[#  29]+0.002*[#  11]+0.002*[#  12]
          +0.002*[#  15]+0.002*[#  16]+0.002*[#  19]+0.002*[#  20]+0.002*[#  23]
          +0.002*[#  24]
    |psi|^2 = 0.981
==== e(   2) =   -18.75223 eV ==== 
     psi = 0.182*[#   5]+0.181*[#   1]+0.158*[#  25]+0.157*[#  29]+0.088*[#  17]
          +0.088*[#  21]+0.051*[#   9]+0.051*[#  13]+0.002*[#   3]+0.002*[#   4]
          +0.002*[#   7]+0.002*[#   8]+0.002*[#  27]+0.002*[#  28]+0.002*[#  31]
          +0.002*[#  32]+0.001*[#  10]+0.001*[#  14]+0.001*[#  18]+0.001*[#  19]
          +0.001*[#  20]
    |psi|^2 = 0.984
==== e(   3) =   -18.64899 eV ==== 
     psi = 0.181*[#  25]+0.181*[#  29]+0.169*[#   1]+0.169*[#   5]+0.088*[#   9]
          +0.088*[#  13]+0.042*[#  17]+0.042*[#  21]+0.002*[#  27]+0.002*[#  28]
          +0.002*[#  31]+0.002*[#  32]+0.002*[#   3]+0.002*[#   4]+0.002*[#   7]
          +0.002*[#   8]+0.001*[#  18]+0.001*[#  22]
    |psi|^2 = 0.988
==== e(   4) =   -18.56497 eV ==== 
     psi = 0.183*[#  17]+0.183*[#  21]+0.158*[#   9]+0.158*[#  13]+0.088*[#  25]
          +0.088*[#  29]+0.055*[#   1]+0.055*[#   5]+0.002*[#  19]+0.002*[#  20]
          +0.002*[#  23]+0.002*[#  24]+0.002*[#  11]+0.002*[#  12]+0.002*[#  15]
          +0.002*[#  16]
    |psi|^2 = 0.991
==== e(   5) =    -7.57400 eV ==== 
     psi = 0.175*[#  14]+0.175*[#  10]+0.174*[#  18]+0.174*[#  22]+0.065*[#   6]
          +0.065*[#   2]+0.064*[#  26]+0.063*[#  30]
    |psi|^2 = 0.957
==== e(   6) =    -7.09978 eV ==== 
     psi = 0.173*[#   6]+0.172*[#   2]+0.167*[#  26]+0.167*[#  30]+0.070*[#  22]
          +0.070*[#  18]+0.067*[#  10]+0.066*[#  14]+0.001*[#   9]+0.001*[#  13]
          +0.001*[#  17]+0.001*[#  21]
    |psi|^2 = 0.958
==== e(   7) =    -6.45984 eV ==== 
     psi = 0.175*[#   2]+0.175*[#   6]+0.175*[#  26]+0.175*[#  30]+0.070*[#  14]
          +0.069*[#  10]+0.061*[#  18]+0.060*[#  22]+0.001*[#   9]+0.001*[#  17]
          +0.002*[#  21]+0.001*[#  13]
    |psi|^2 = 0.967
==== e(   8) =    -5.88640 eV ==== 
     psi = 0.179*[#  22]+0.179*[#  18]+0.173*[#  10]+0.173*[#  14]+0.073*[#  30]
          +0.073*[#  26]+0.066*[#   2]+0.066*[#   6]
    |psi|^2 = 0.984
==== e(   9) =    -2.46777 eV ==== 
     psi = 0.168*[#   7]+0.168*[#   8]+0.168*[#   3]+0.168*[#   4]+0.064*[#  11]
          +0.064*[#  12]+0.064*[#  15]+0.064*[#  16]+0.014*[#  19]+0.014*[#  20]
          +0.013*[#  23]+0.013*[#  24]+0.004*[#   1]+0.004*[#   5]+0.002*[#   9]
          +0.002*[#  13]+0.001*[#  27]+0.001*[#  28]+0.001*[#  31]+0.001*[#  32]
          
    |psi|^2 = 0.997
==== e(  10) =    -2.45788 eV ==== 
     psi = 0.125*[#  19]+0.125*[#  20]+0.125*[#  23]+0.125*[#  24]+0.054*[#   3]
          +0.054*[#   4]+0.054*[#   7]+0.054*[#   8]+0.036*[#  15]+0.036*[#  16]
          +0.036*[#  11]+0.036*[#  12]+0.032*[#  27]+0.032*[#  28]+0.032*[#  31]
          +0.032*[#  32]+0.003*[#  17]+0.003*[#  21]+0.001*[#   1]+0.001*[#   5]
          
    |psi|^2 = 0.997
==== e(  11) =    -2.44750 eV ==== 
     psi = 0.123*[#  11]+0.123*[#  12]+0.123*[#  15]+0.123*[#  16]+0.080*[#  27]
          +0.080*[#  28]+0.080*[#  31]+0.080*[#  32]+0.023*[#   3]+0.023*[#   4]
          +0.023*[#   7]+0.023*[#   8]+0.020*[#  23]+0.020*[#  24]+0.020*[#  19]
          +0.020*[#  20]+0.003*[#   9]+0.003*[#  13]+0.002*[#  25]+0.002*[#  29]
          
    |psi|^2 = 0.997
==== e(  12) =    -2.43809 eV ==== 
     psi = 0.133*[#  27]+0.133*[#  28]+0.133*[#  31]+0.133*[#  32]+0.088*[#  19]
          +0.088*[#  20]+0.088*[#  23]+0.088*[#  24]+0.024*[#  11]+0.024*[#  12]
          +0.024*[#  15]+0.024*[#  16]+0.003*[#  25]+0.003*[#  29]+0.002*[#  17]
          +0.002*[#  21]+0.002*[#   3]+0.002*[#   4]+0.002*[#   7]+0.002*[#   8]
          
    |psi|^2 = 0.997
==== e(  13) =    -2.35278 eV ==== 
     psi = 0.179*[#   7]+0.179*[#   8]+0.178*[#   3]+0.178*[#   4]+0.059*[#  11]
          +0.059*[#  12]+0.059*[#  15]+0.059*[#  16]+0.011*[#  19]+0.011*[#  20]
          +0.011*[#  23]+0.011*[#  24]
    |psi|^2 = 0.997
==== e(  14) =    -2.34305 eV ==== 
     psi = 0.127*[#  19]+0.127*[#  20]+0.127*[#  23]+0.127*[#  24]+0.049*[#   3]
          +0.049*[#   4]+0.049*[#   7]+0.049*[#   8]+0.044*[#  15]+0.044*[#  16]
          +0.044*[#  11]+0.044*[#  12]+0.030*[#  27]+0.030*[#  28]+0.030*[#  31]
          +0.030*[#  32]
    |psi|^2 = 0.997
==== e(  15) =    -2.33328 eV ==== 
     psi = 0.125*[#  11]+0.125*[#  12]+0.125*[#  15]+0.125*[#  16]+0.078*[#  27]
          +0.078*[#  28]+0.078*[#  31]+0.078*[#  32]+0.026*[#  23]+0.026*[#  24]
          +0.026*[#  19]+0.026*[#  20]+0.021*[#   3]+0.021*[#   4]+0.020*[#   7]
          +0.020*[#   8]
    |psi|^2 = 0.997
==== e(  16) =    -2.32430 eV ==== 
     psi = 0.140*[#  31]+0.140*[#  32]+0.140*[#  27]+0.140*[#  28]+0.086*[#  19]
          +0.086*[#  20]+0.086*[#  23]+0.086*[#  24]+0.022*[#  11]+0.022*[#  12]
          +0.022*[#  15]+0.022*[#  16]+0.001*[#   3]+0.001*[#   4]+0.001*[#   7]
          +0.001*[#   8]
    |psi|^2 = 0.997
==== e(  17) =     4.38987 eV ==== 
     psi = 0.003*[#   2]+0.003*[#   6]+0.002*[#  30]+0.002*[#  26]
    |psi|^2 = 0.019
==== e(  18) =     4.47288 eV ==== 
     psi = 0.003*[#  30]+0.003*[#  26]+0.002*[#   2]+0.002*[#   6]
    |psi|^2 = 0.020
==== e(  19) =     5.05358 eV ==== 
 
    |psi|^2 = 0.004
==== e(  20) =     5.69250 eV ==== 
 
    |psi|^2 = 0.005
==== e(  21) =     5.95280 eV ==== 
     psi = 0.002*[#   6]+0.001*[#  13]+0.002*[#  26]+0.001*[#   2]+0.001*[#   9]
          +0.001*[#  17]+0.001*[#  21]+0.001*[#  30]
    |psi|^2 = 0.019
==== e(  22) =     6.86017 eV ==== 
     psi = 0.002*[#   2]+0.002*[#   6]+0.002*[#  26]+0.002*[#  30]
    |psi|^2 = 0.013
==== e(  23) =     7.30250 eV ==== 
     psi = 0.001*[#  10]+0.001*[#  14]+0.001*[#  22]+0.001*[#  18]
    |psi|^2 = 0.011
==== e(  24) =     8.56126 eV ==== 
     psi = 0.004*[#   6]+0.004*[#  26]+0.004*[#   2]+0.004*[#  30]+0.001*[#  10]
          +0.001*[#  14]+0.001*[#  18]+0.001*[#  22]
    |psi|^2 = 0.024
==== e(  25) =     8.96832 eV ==== 
     psi = 0.002*[#   3]+0.002*[#   4]+0.002*[#   7]+0.002*[#   8]+0.002*[#  27]
          +0.002*[#  28]+0.002*[#  31]+0.002*[#  32]+0.001*[#  10]+0.001*[#  14]
          +0.001*[#  18]+0.001*[#  22]
    |psi|^2 = 0.033
==== e(  26) =     9.22309 eV ==== 
     psi = 0.085*[#  11]+0.085*[#  12]+0.085*[#  15]+0.085*[#  16]+0.066*[#   7]
          +0.066*[#   8]+0.065*[#   3]+0.065*[#   4]+0.061*[#  19]+0.061*[#  20]
          +0.061*[#  23]+0.061*[#  24]+0.019*[#  27]+0.019*[#  28]+0.019*[#  31]
          +0.019*[#  32]+0.004*[#   9]+0.004*[#  13]+0.003*[#   1]+0.003*[#   5]
          +0.003*[#  21]+0.003*[#  17]+0.001*[#  29]
    |psi|^2 = 0.942
==== e(  27) =     9.24907 eV ==== 
     psi = 0.106*[#   3]+0.106*[#   4]+0.106*[#   7]+0.106*[#   8]+0.068*[#  23]
          +0.068*[#  24]+0.067*[#  19]+0.067*[#  20]+0.050*[#  27]+0.050*[#  28]
          +0.050*[#  31]+0.050*[#  32]+0.005*[#   1]+0.005*[#   5]+0.003*[#  17]
          +0.003*[#  21]+0.002*[#  29]+0.002*[#  11]+0.002*[#  12]+0.002*[#  15]
          +0.002*[#  16]+0.002*[#  25]
    |psi|^2 = 0.922
==== e(  28) =     9.26889 eV ==== 
     psi = 0.103*[#  15]+0.103*[#  16]+0.103*[#  11]+0.103*[#  12]+0.075*[#  31]
          +0.075*[#  32]+0.075*[#  27]+0.075*[#  28]+0.051*[#   3]+0.051*[#   4]
          +0.050*[#   7]+0.050*[#   8]+0.005*[#   9]+0.005*[#  13]+0.004*[#  25]
          +0.004*[#  29]+0.003*[#   5]+0.003*[#   1]
    |psi|^2 = 0.940
==== e(  29) =     9.28294 eV ==== 
     psi = 0.100*[#  19]+0.100*[#  20]+0.100*[#  23]+0.100*[#  24]+0.084*[#  31]
          +0.084*[#  32]+0.083*[#  27]+0.083*[#  28]+0.040*[#  11]+0.040*[#  12]
          +0.039*[#  15]+0.039*[#  16]+0.006*[#  21]+0.005*[#   3]+0.005*[#   4]
          +0.006*[#  17]+0.005*[#   7]+0.005*[#   8]+0.005*[#  25]+0.005*[#  29]
          +0.002*[#  13]+0.002*[#   9]
    |psi|^2 = 0.942
==== e(  30) =     9.45189 eV ==== 
     psi = 0.096*[#  11]+0.096*[#  12]+0.096*[#  15]+0.096*[#  16]+0.082*[#   7]
          +0.082*[#   8]+0.082*[#   3]+0.082*[#   4]+0.050*[#  19]+0.050*[#  20]
          +0.050*[#  23]+0.050*[#  24]+0.009*[#  27]+0.009*[#  28]+0.009*[#  31]
          +0.009*[#  32]
    |psi|^2 = 0.948

 k =   0.0555555556  0.0320750150  0.0000000000
==== e(   1) =   -18.81988 eV ==== 
     psi = 0.182*[#   9]+0.182*[#  13]+0.165*[#  17]+0.165*[#  21]+0.074*[#   1]
          +0.074*[#   5]+0.053*[#  25]+0.053*[#  29]+0.003*[#  11]+0.003*[#  12]
          +0.003*[#  15]+0.003*[#  16]+0.003*[#  19]+0.003*[#  20]+0.003*[#  23]
          +0.003*[#  24]+0.001*[#   3]+0.001*[#   4]+0.001*[#   7]+0.001*[#   8]
          
    |psi|^2 = 0.981
==== e(   2) =   -18.73827 eV ==== 
     psi = 0.181*[#   5]+0.180*[#   1]+0.157*[#  25]+0.157*[#  29]+0.087*[#  17]
          +0.088*[#  21]+0.051*[#   9]+0.051*[#  13]+0.003*[#   3]+0.003*[#   4]
          +0.003*[#   7]+0.003*[#   8]+0.002*[#  27]+0.002*[#  28]+0.002*[#  31]
          +0.002*[#  32]+0.001*[#  10]+0.001*[#  14]+0.001*[#  19]+0.001*[#  20]
          +0.001*[#  23]+0.001*[#  24]+0.001*[#  18]
    |psi|^2 = 0.984
==== e(   3) =   -18.63512 eV ==== 
     psi = 0.180*[#  25]+0.180*[#  29]+0.169*[#   1]+0.169*[#   5]+0.088*[#   9]
          +0.088*[#  13]+0.042*[#  17]+0.042*[#  21]+0.002*[#  27]+0.002*[#  28]
          +0.002*[#  31]+0.002*[#  32]+0.002*[#   3]+0.002*[#   4]+0.002*[#   7]
          +0.002*[#   8]+0.001*[#  22]+0.001*[#  11]+0.001*[#  12]+0.001*[#  15]
          +0.001*[#  16]+0.001*[#  18]
    |psi|^2 = 0.988
==== e(   4) =   -18.55117 eV ==== 
     psi = 0.183*[#  17]+0.183*[#  21]+0.157*[#   9]+0.157*[#  13]+0.088*[#  25]
          +0.088*[#  29]+0.054*[#   1]+0.054*[#   5]+0.002*[#  19]+0.002*[#  20]
          +0.002*[#  23]+0.002*[#  24]+0.002*[#  11]+0.002*[#  12]+0.002*[#  15]
          +0.002*[#  16]+0.001*[#  27]+0.001*[#  28]+0.001*[#  31]+0.001*[#  32]
          
    |psi|^2 = 0.991
==== e(   5) =    -7.55696 eV ==== 
     psi = 0.175*[#  14]+0.175*[#  10]+0.174*[#  18]+0.174*[#  22]+0.065*[#   6]
          +0.065*[#   2]+0.064*[#  26]+0.063*[#  30]
    |psi|^2 = 0.958
==== e(   6) =    -7.08297 eV ==== 
     psi = 0.173*[#   6]+0.172*[#   2]+0.167*[#  26]+0.167*[#  30]+0.070*[#  22]
          +0.070*[#  18]+0.067*[#  10]+0.066*[#  14]+0.001*[#   9]+0.001*[#  13]
          +0.001*[#  17]+0.001*[#  21]
    |psi|^2 = 0.959
==== e(   7) =    -6.44337 eV ==== 
     psi = 0.175*[#   2]+0.175*[#   6]+0.175*[#  26]+0.175*[#  30]+0.070*[#  14]
          +0.070*[#  10]+0.061*[#  18]+0.060*[#  22]+0.001*[#   9]+0.001*[#  17]
          +0.002*[#  21]+0.001*[#  13]
    |psi|^2 = 0.967
==== e(   8) =    -5.87028 eV ==== 
     psi = 0.179*[#  22]+0.179*[#  18]+0.173*[#  10]+0.173*[#  14]+0.073*[#  30]
          +0.073*[#  26]+0.066*[#   2]+0.066*[#   6]
    |psi|^2 = 0.984
==== e(   9) =    -2.52384 eV ==== 
     psi = 0.162*[#   7]+0.162*[#   8]+0.162*[#   3]+0.162*[#   4]+0.067*[#  11]
          +0.067*[#  12]+0.067*[#  15]+0.067*[#  16]+0.015*[#  19]+0.015*[#  20]
          +0.015*[#  23]+0.015*[#  24]+0.005*[#   1]+0.005*[#   5]+0.002*[#   9]
          +0.002*[#  13]+0.001*[#  27]+0.001*[#  28]+0.001*[#  31]+0.001*[#  32]
          
    |psi|^2 = 0.997
[...]
          +0.053*[#  12]+0.052*[#  15]+0.052*[#  16]+0.019*[#  19]+0.019*[#  20]
          +0.019*[#  23]+0.019*[#  24]+0.002*[#  27]+0.002*[#  28]+0.002*[#  31]
          +0.002*[#  32]
    |psi|^2 = 0.997
==== e(  11) =    -2.22958 eV ==== 
     psi = 0.113*[#  19]+0.113*[#  20]+0.112*[#  23]+0.112*[#  24]+0.059*[#   3]
          +0.059*[#   4]+0.059*[#   7]+0.059*[#   8]+0.057*[#  15]+0.057*[#  16]
          +0.057*[#  11]+0.057*[#  12]+0.021*[#  27]+0.021*[#  28]+0.021*[#  31]
          +0.021*[#  32]
    |psi|^2 = 0.997
==== e(  12) =    -2.22295 eV ==== 
     psi = 0.100*[#  19]+0.100*[#  20]+0.100*[#  23]+0.100*[#  24]+0.083*[#  15]
          +0.083*[#  16]+0.082*[#  11]+0.082*[#  12]+0.039*[#  27]+0.039*[#  28]
          +0.038*[#  31]+0.038*[#  32]+0.028*[#   3]+0.028*[#   4]+0.028*[#   7]
          +0.028*[#   8]
    |psi|^2 = 0.997
==== e(  13) =    -2.22079 eV ==== 
     psi = 0.107*[#  15]+0.107*[#  16]+0.107*[#  11]+0.107*[#  12]+0.068*[#  23]
          +0.068*[#  24]+0.067*[#  19]+0.067*[#  20]+0.052*[#  27]+0.052*[#  28]
          +0.051*[#  31]+0.051*[#  32]+0.024*[#   3]+0.024*[#   4]+0.023*[#   7]
          +0.023*[#   8]
    |psi|^2 = 0.997
==== e(  14) =    -2.21458 eV ==== 
     psi = 0.105*[#  27]+0.105*[#  28]+0.105*[#  31]+0.105*[#  32]+0.087*[#  11]
          +0.087*[#  12]+0.086*[#  15]+0.086*[#  16]+0.048*[#  23]+0.048*[#  24]
          +0.048*[#  19]+0.048*[#  20]+0.010*[#   3]+0.010*[#   4]+0.010*[#   7]
          +0.010*[#   8]
    |psi|^2 = 0.997
==== e(  15) =    -2.21275 eV ==== 
     psi = 0.121*[#  27]+0.121*[#  28]+0.121*[#  31]+0.121*[#  32]+0.070*[#  19]
          +0.070*[#  20]+0.070*[#  23]+0.070*[#  24]+0.052*[#  11]+0.052*[#  12]
          +0.052*[#  15]+0.052*[#  16]+0.005*[#   3]+0.005*[#   4]+0.005*[#   7]
          +0.005*[#   8]
    |psi|^2 = 0.997
==== e(  16) =    -2.20585 eV ==== 
     psi = 0.159*[#  31]+0.159*[#  32]+0.159*[#  27]+0.159*[#  28]+0.075*[#  19]
          +0.075*[#  20]+0.075*[#  23]+0.075*[#  24]+0.015*[#  11]+0.015*[#  12]
          +0.015*[#  15]+0.015*[#  16]
    |psi|^2 = 0.997
==== e(  17) =     4.31493 eV ==== 
     psi = 0.003*[#   2]+0.003*[#   6]+0.002*[#  30]+0.002*[#  26]+0.001*[#   1]
          +0.001*[#   5]
    |psi|^2 = 0.015
==== e(  18) =     4.39763 eV ==== 
     psi = 0.004*[#  30]+0.003*[#  26]+0.002*[#   2]+0.002*[#   6]+0.001*[#  25]
          +0.001*[#  29]
    |psi|^2 = 0.017
==== e(  19) =     4.97708 eV ==== 
 
    |psi|^2 = 0.003
==== e(  20) =     5.61643 eV ==== 
 
    |psi|^2 = 0.005
==== e(  21) =     5.88307 eV ==== 
     psi = 0.002*[#   6]+0.002*[#   9]+0.002*[#  13]+0.002*[#  17]+0.002*[#  21]
          +0.002*[#  26]+0.001*[#   2]+0.001*[#  30]
    |psi|^2 = 0.016
==== e(  22) =     6.78703 eV ==== 
     psi = 0.002*[#   2]+0.002*[#   6]+0.002*[#  26]+0.002*[#  30]
    |psi|^2 = 0.013
==== e(  23) =     7.23165 eV ==== 
     psi = 0.001*[#  10]+0.001*[#  14]+0.001*[#  22]+0.001*[#  18]
    |psi|^2 = 0.011
==== e(  24) =     8.49629 eV ==== 
     psi = 0.004*[#   6]+0.004*[#  26]+0.004*[#   2]+0.004*[#  30]+0.001*[#  10]
          +0.001*[#  14]+0.001*[#  18]+0.001*[#  22]
    |psi|^2 = 0.023
==== e(  25) =     8.90492 eV ==== 
     psi = 0.001*[#  10]+0.001*[#  14]+0.001*[#  18]+0.001*[#  22]
    |psi|^2 = 0.010
==== e(  26) =     9.19601 eV ==== 
     psi = 0.095*[#  11]+0.095*[#  12]+0.095*[#  15]+0.095*[#  16]+0.082*[#   7]
          +0.082*[#   8]+0.082*[#   3]+0.082*[#   4]+0.050*[#  19]+0.050*[#  20]
          +0.050*[#  23]+0.050*[#  24]+0.010*[#  27]+0.010*[#  28]+0.010*[#  31]
          +0.010*[#  32]
    |psi|^2 = 0.949
==== e(  27) =     9.21070 eV ==== 
     psi = 0.086*[#  11]+0.086*[#  12]+0.085*[#  15]+0.085*[#  16]+0.084*[#   7]
          +0.084*[#   8]+0.084*[#   3]+0.084*[#   4]+0.054*[#  19]+0.054*[#  20]
          +0.054*[#  23]+0.054*[#  24]+0.014*[#  27]+0.014*[#  28]+0.014*[#  31]
          +0.014*[#  32]
    |psi|^2 = 0.949
==== e(  28) =     9.21224 eV ==== 
     psi = 0.094*[#   3]+0.094*[#   4]+0.094*[#   7]+0.094*[#   8]+0.085*[#  23]
          +0.085*[#  24]+0.085*[#  19]+0.085*[#  20]+0.047*[#  27]+0.047*[#  28]
          +0.047*[#  31]+0.047*[#  32]+0.011*[#  11]+0.011*[#  12]+0.011*[#  15]
          +0.011*[#  16]
    |psi|^2 = 0.949
==== e(  29) =     9.22623 eV ==== 
     psi = 0.093*[#   3]+0.093*[#   4]+0.093*[#   7]+0.093*[#   8]+0.091*[#  23]
          +0.091*[#  24]+0.090*[#  19]+0.090*[#  20]+0.053*[#  27]+0.053*[#  28]
          +0.053*[#  31]+0.053*[#  32]+0.001*[#  11]+0.001*[#  12]+0.001*[#  15]
          +0.001*[#  16]
    |psi|^2 = 0.950
==== e(  30) =     9.23140 eV ==== 
     psi = 0.097*[#  15]+0.097*[#  16]+0.096*[#  11]+0.096*[#  12]+0.086*[#  31]
          +0.086*[#  32]+0.085*[#  27]+0.085*[#  28]+0.054*[#   3]+0.054*[#   4]
          +0.054*[#   7]+0.054*[#   8]+0.001*[#  19]+0.001*[#  20]+0.001*[#  23]
          +0.001*[#  24]
    |psi|^2 = 0.950

 k =   0.0037033333  0.0064143615  0.0000000000
==== e(   1) =   -18.89274 eV ==== 
     psi = 0.187*[#   9]+0.187*[#  13]+0.170*[#  17]+0.170*[#  21]+0.077*[#   1]
          +0.077*[#   5]+0.055*[#  25]+0.055*[#  29]
    |psi|^2 = 0.981
==== e(   2) =   -18.81078 eV ==== 
     psi = 0.186*[#   5]+0.186*[#   1]+0.161*[#  25]+0.161*[#  29]+0.090*[#  17]
          +0.090*[#  21]+0.052*[#   9]+0.052*[#  13]+0.001*[#  10]+0.001*[#  14]
          +0.001*[#  18]+0.001*[#  22]
    |psi|^2 = 0.984
==== e(   3) =   -18.70718 eV ==== 
     psi = 0.185*[#  25]+0.185*[#  29]+0.173*[#   1]+0.173*[#   5]+0.090*[#   9]
          +0.090*[#  13]+0.043*[#  17]+0.043*[#  21]+0.001*[#  18]+0.001*[#  22]
          +0.001*[#  10]
    |psi|^2 = 0.988
==== e(   4) =   -18.62285 eV ==== 
     psi = 0.187*[#  17]+0.187*[#  21]+0.161*[#   9]+0.161*[#  13]+0.090*[#  25]
          +0.090*[#  29]+0.056*[#   1]+0.056*[#   5]
    |psi|^2 = 0.991
==== e(   5) =    -7.64548 eV ==== 
     psi = 0.175*[#  14]+0.174*[#  10]+0.174*[#  18]+0.174*[#  22]+0.065*[#   6]
          +0.065*[#   2]+0.064*[#  26]+0.063*[#  30]
    |psi|^2 = 0.956
==== e(   6) =    -7.17030 eV ==== 
     psi = 0.173*[#   6]+0.172*[#   2]+0.167*[#  26]+0.166*[#  30]+0.070*[#  22]
          +0.070*[#  18]+0.066*[#  10]+0.066*[#  14]+0.001*[#   9]+0.002*[#  13]
          +0.001*[#  17]+0.001*[#  21]
    |psi|^2 = 0.957
==== e(   7) =    -6.52895 eV ==== 
     psi = 0.175*[#   2]+0.175*[#   6]+0.174*[#  26]+0.174*[#  30]+0.070*[#  14]
          +0.069*[#  10]+0.061*[#  18]+0.060*[#  22]+0.002*[#   9]+0.002*[#  17]
          +0.002*[#  21]+0.001*[#  13]
    |psi|^2 = 0.965
==== e(   8) =    -5.95406 eV ==== 
     psi = 0.179*[#  22]+0.179*[#  18]+0.173*[#  10]+0.172*[#  14]+0.073*[#  30]
          +0.073*[#  26]+0.066*[#   2]+0.066*[#   6]
    |psi|^2 = 0.983
==== e(   9) =    -2.22708 eV ==== 
     psi = 0.198*[#   7]+0.198*[#   8]+0.197*[#   3]+0.197*[#   4]+0.046*[#  11]
          +0.046*[#  12]+0.045*[#  15]+0.045*[#  16]+0.006*[#  19]+0.006*[#  20]
          +0.006*[#  23]+0.006*[#  24]
    |psi|^2 = 0.997
==== e(  10) =    -2.22517 eV ==== 
     psi = 0.198*[#   7]+0.198*[#   8]+0.197*[#   3]+0.197*[#   4]+0.046*[#  11]
          +0.046*[#  12]+0.045*[#  15]+0.045*[#  16]+0.006*[#  19]+0.006*[#  20]
          +0.006*[#  23]+0.006*[#  24]
    |psi|^2 = 0.997
==== e(  11) =    -2.21759 eV ==== 
     psi = 0.124*[#  19]+0.124*[#  20]+0.124*[#  23]+0.124*[#  24]+0.066*[#  15]
          +0.066*[#  16]+0.066*[#  11]+0.066*[#  12]+0.037*[#   3]+0.037*[#   4]
          +0.037*[#   7]+0.037*[#   8]+0.022*[#  27]+0.022*[#  28]+0.022*[#  31]
          +0.022*[#  32]
    |psi|^2 = 0.997
==== e(  12) =    -2.21571 eV ==== 
     psi = 0.124*[#  19]+0.124*[#  20]+0.124*[#  23]+0.124*[#  24]+0.067*[#  15]
          +0.067*[#  16]+0.066*[#  11]+0.066*[#  12]+0.037*[#   3]+0.037*[#   4]
          +0.036*[#   7]+0.036*[#   8]+0.023*[#  27]+0.023*[#  28]+0.022*[#  31]
          +0.022*[#  32]
    |psi|^2 = 0.997
==== e(  13) =    -2.20932 eV ==== 
     psi = 0.123*[#  11]+0.123*[#  12]+0.123*[#  15]+0.123*[#  16]+0.067*[#  27]
          +0.067*[#  28]+0.067*[#  31]+0.067*[#  32]+0.045*[#  23]+0.045*[#  24]
          +0.044*[#  19]+0.044*[#  20]+0.015*[#   3]+0.015*[#   4]+0.014*[#   7]
          +0.014*[#   8]
    |psi|^2 = 0.997
==== e(  14) =    -2.20744 eV ==== 
     psi = 0.123*[#  11]+0.123*[#  12]+0.123*[#  15]+0.123*[#  16]+0.068*[#  27]
          +0.068*[#  28]+0.067*[#  31]+0.067*[#  32]+0.045*[#  23]+0.045*[#  24]
          +0.044*[#  19]+0.044*[#  20]+0.014*[#   3]+0.014*[#   4]+0.014*[#   7]
          +0.014*[#   8]
    |psi|^2 = 0.997
==== e(  15) =    -2.20125 eV ==== 
     psi = 0.159*[#  31]+0.159*[#  32]+0.159*[#  27]+0.159*[#  28]+0.075*[#  19]
          +0.075*[#  20]+0.074*[#  23]+0.074*[#  24]+0.015*[#  11]+0.015*[#  12]
          +0.015*[#  15]+0.015*[#  16]
    |psi|^2 = 0.997
==== e(  16) =    -2.19937 eV ==== 
     psi = 0.160*[#  31]+0.160*[#  32]+0.159*[#  27]+0.159*[#  28]+0.075*[#  19]
          +0.075*[#  20]+0.074*[#  23]+0.074*[#  24]+0.015*[#  11]+0.015*[#  12]
          +0.015*[#  15]+0.015*[#  16]
    |psi|^2 = 0.997
==== e(  17) =     4.31097 eV ==== 
     psi = 0.003*[#   2]+0.003*[#   6]+0.002*[#  30]+0.002*[#  26]+0.001*[#   1]
          +0.001*[#   5]
    |psi|^2 = 0.015
==== e(  18) =     4.39365 eV ==== 
     psi = 0.004*[#  30]+0.003*[#  26]+0.002*[#   2]+0.002*[#   6]+0.001*[#  25]
          +0.001*[#  29]
    |psi|^2 = 0.017
==== e(  19) =     4.97303 eV ==== 
 
    |psi|^2 = 0.003
==== e(  20) =     5.61241 eV ==== 
 
    |psi|^2 = 0.004
==== e(  21) =     5.87939 eV ==== 
     psi = 0.002*[#   9]+0.002*[#  13]+0.002*[#  17]+0.002*[#   6]+0.002*[#  21]
          +0.002*[#  26]+0.001*[#   2]+0.001*[#  30]
    |psi|^2 = 0.016
==== e(  22) =     6.78316 eV ==== 
     psi = 0.002*[#   2]+0.002*[#   6]+0.002*[#  26]+0.002*[#  30]
    |psi|^2 = 0.013
==== e(  23) =     7.22790 eV ==== 
     psi = 0.001*[#  10]+0.001*[#  14]+0.001*[#  22]+0.001*[#  18]
    |psi|^2 = 0.011
==== e(  24) =     8.49286 eV ==== 
     psi = 0.004*[#   6]+0.004*[#  26]+0.004*[#   2]+0.004*[#  30]+0.001*[#  10]
          +0.001*[#  14]+0.001*[#  18]+0.001*[#  22]
    |psi|^2 = 0.023
==== e(  25) =     8.90152 eV ==== 
     psi = 0.001*[#  10]+0.001*[#  14]+0.001*[#  18]+0.001*[#  22]
    |psi|^2 = 0.009
==== e(  26) =     9.19426 eV ==== 
     psi = 0.096*[#  11]+0.096*[#  12]+0.096*[#  15]+0.096*[#  16]+0.083*[#   7]
          +0.083*[#   8]+0.083*[#   3]+0.083*[#   4]+0.050*[#  19]+0.050*[#  20]
          +0.049*[#  23]+0.049*[#  24]+0.009*[#  27]+0.009*[#  28]+0.009*[#  31]
          +0.009*[#  32]
    |psi|^2 = 0.950
==== e(  27) =     9.19798 eV ==== 
     psi = 0.096*[#  11]+0.096*[#  12]+0.096*[#  15]+0.096*[#  16]+0.084*[#   7]
          +0.084*[#   8]+0.083*[#   3]+0.083*[#   4]+0.049*[#  19]+0.049*[#  20]
          +0.049*[#  23]+0.049*[#  24]+0.009*[#  27]+0.009*[#  28]+0.009*[#  31]
          +0.009*[#  32]
    |psi|^2 = 0.950
==== e(  28) =     9.20985 eV ==== 
     psi = 0.094*[#   3]+0.094*[#   4]+0.094*[#   7]+0.094*[#   8]+0.091*[#  23]
          +0.091*[#  24]+0.091*[#  19]+0.091*[#  20]+0.053*[#  27]+0.053*[#  28]
          +0.052*[#  31]+0.052*[#  32]
    |psi|^2 = 0.950
==== e(  29) =     9.21342 eV ==== 
     psi = 0.094*[#   3]+0.094*[#   4]+0.093*[#   7]+0.093*[#   8]+0.092*[#  23]
          +0.092*[#  24]+0.091*[#  19]+0.091*[#  20]+0.053*[#  27]+0.053*[#  28]
          +0.052*[#  31]+0.052*[#  32]
    |psi|^2 = 0.950
==== e(  30) =     9.22904 eV ==== 
     psi = 0.096*[#  15]+0.096*[#  16]+0.096*[#  11]+0.096*[#  12]+0.089*[#  31]
          +0.089*[#  32]+0.088*[#  27]+0.088*[#  28]+0.053*[#   3]+0.053*[#   4]
          +0.053*[#   7]+0.053*[#   8]
    |psi|^2 = 0.950

 k =   0.0000000000  0.0000000000  0.0000000000
==== e(   1) =   -18.89373 eV ==== 
     psi = 0.187*[#   9]+0.187*[#  13]+0.170*[#  17]+0.170*[#  21]+0.077*[#   1]
          +0.077*[#   5]+0.055*[#  25]+0.055*[#  29]
    |psi|^2 = 0.981
==== e(   2) =   -18.81176 eV ==== 
     psi = 0.186*[#   5]+0.186*[#   1]+0.161*[#  25]+0.161*[#  29]+0.090*[#  17]
          +0.090*[#  21]+0.052*[#   9]+0.052*[#  13]+0.001*[#  10]+0.001*[#  14]
          +0.001*[#  18]+0.001*[#  22]
    |psi|^2 = 0.984
==== e(   3) =   -18.70815 eV ==== 
     psi = 0.185*[#  25]+0.185*[#  29]+0.173*[#   1]+0.173*[#   5]+0.090*[#   9]
          +0.090*[#  13]+0.043*[#  17]+0.043*[#  21]+0.001*[#  18]+0.001*[#  22]
          +0.001*[#  10]
    |psi|^2 = 0.988
==== e(   4) =   -18.62382 eV ==== 
     psi = 0.187*[#  17]+0.187*[#  21]+0.161*[#   9]+0.161*[#  13]+0.090*[#  25]
          +0.090*[#  29]+0.056*[#   1]+0.056*[#   5]
    |psi|^2 = 0.991
==== e(   5) =    -7.64667 eV ==== 
     psi = 0.175*[#  14]+0.174*[#  10]+0.174*[#  18]+0.174*[#  22]+0.065*[#   6]
          +0.065*[#   2]+0.064*[#  26]+0.063*[#  30]
    |psi|^2 = 0.956
==== e(   6) =    -7.17148 eV ==== 
     psi = 0.173*[#   6]+0.172*[#   2]+0.167*[#  26]+0.166*[#  30]+0.070*[#  22]
          +0.070*[#  18]+0.066*[#  10]+0.066*[#  14]+0.001*[#   9]+0.002*[#  13]
          +0.001*[#  17]+0.001*[#  21]
    |psi|^2 = 0.957
==== e(   7) =    -6.53011 eV ==== 
     psi = 0.175*[#   2]+0.175*[#   6]+0.174*[#  26]+0.174*[#  30]+0.070*[#  14]
          +0.069*[#  10]+0.061*[#  18]+0.060*[#  22]+0.002*[#   9]+0.002*[#  17]
          +0.002*[#  21]+0.001*[#  13]
    |psi|^2 = 0.965
==== e(   8) =    -5.95520 eV ==== 
     psi = 0.179*[#  22]+0.179*[#  18]+0.173*[#  10]+0.172*[#  14]+0.073*[#  30]
          +0.073*[#  26]+0.066*[#   2]+0.066*[#   6]
    |psi|^2 = 0.983
==== e(   9) =    -2.22297 eV ==== 
     psi = 0.198*[#   7]+0.198*[#   8]+0.198*[#   3]+0.198*[#   4]+0.045*[#  11]
          +0.045*[#  12]+0.045*[#  15]+0.045*[#  16]+0.006*[#  19]+0.006*[#  20]
          +0.006*[#  23]+0.006*[#  24]
    |psi|^2 = 0.997
==== e(  10) =    -2.22297 eV ==== 
     psi = 0.198*[#   7]+0.198*[#   8]+0.198*[#   3]+0.198*[#   4]+0.045*[#  11]
          +0.045*[#  12]+0.045*[#  15]+0.045*[#  16]+0.006*[#  19]+0.006*[#  20]
          +0.006*[#  23]+0.006*[#  24]
    |psi|^2 = 0.997
==== e(  11) =    -2.21350 eV ==== 
     psi = 0.124*[#  19]+0.124*[#  20]+0.124*[#  23]+0.124*[#  24]+0.067*[#  15]
          +0.067*[#  16]+0.066*[#  11]+0.066*[#  12]+0.037*[#   3]+0.037*[#   4]
          +0.036*[#   7]+0.036*[#   8]+0.022*[#  27]+0.022*[#  28]+0.022*[#  31]
          +0.022*[#  32]
    |psi|^2 = 0.997
==== e(  12) =    -2.21350 eV ==== 
     psi = 0.124*[#  19]+0.124*[#  20]+0.124*[#  23]+0.124*[#  24]+0.067*[#  15]
          +0.067*[#  16]+0.066*[#  11]+0.066*[#  12]+0.036*[#   3]+0.036*[#   4]
          +0.036*[#   7]+0.036*[#   8]+0.022*[#  27]+0.022*[#  28]+0.022*[#  31]
          +0.022*[#  32]
    |psi|^2 = 0.997
==== e(  13) =    -2.20527 eV ==== 
     psi = 0.123*[#  11]+0.123*[#  12]+0.123*[#  15]+0.123*[#  16]+0.067*[#  27]
          +0.067*[#  28]+0.067*[#  31]+0.067*[#  32]+0.045*[#  23]+0.045*[#  24]
          +0.045*[#  19]+0.045*[#  20]+0.014*[#   3]+0.014*[#   4]+0.014*[#   7]
          +0.014*[#   8]
    |psi|^2 = 0.997
==== e(  14) =    -2.20527 eV ==== 
     psi = 0.123*[#  11]+0.123*[#  12]+0.123*[#  15]+0.123*[#  16]+0.067*[#  27]
          +0.067*[#  28]+0.067*[#  31]+0.067*[#  32]+0.045*[#  23]+0.045*[#  24]
          +0.045*[#  19]+0.045*[#  20]+0.014*[#   3]+0.014*[#   4]+0.014*[#   7]
          +0.014*[#   8]
    |psi|^2 = 0.997
==== e(  15) =    -2.19722 eV ==== 
     psi = 0.160*[#  31]+0.160*[#  32]+0.160*[#  27]+0.160*[#  28]+0.074*[#  19]
          +0.074*[#  20]+0.074*[#  23]+0.074*[#  24]+0.015*[#  11]+0.015*[#  12]
          +0.015*[#  15]+0.015*[#  16]
    |psi|^2 = 0.997
==== e(  16) =    -2.19722 eV ==== 
     psi = 0.160*[#  31]+0.160*[#  32]+0.160*[#  27]+0.160*[#  28]+0.074*[#  19]
          +0.074*[#  20]+0.074*[#  23]+0.074*[#  24]+0.015*[#  11]+0.015*[#  12]
          +0.015*[#  15]+0.015*[#  16]
    |psi|^2 = 0.997
==== e(  17) =     4.30965 eV ==== 
     psi = 0.003*[#   2]+0.003*[#   6]+0.002*[#  30]+0.002*[#  26]+0.001*[#   1]
          +0.001*[#   5]
    |psi|^2 = 0.015
==== e(  18) =     4.39233 eV ==== 
     psi = 0.004*[#  30]+0.003*[#  26]+0.002*[#   2]+0.002*[#   6]+0.001*[#  25]
          +0.001*[#  29]
    |psi|^2 = 0.017
==== e(  19) =     4.97169 eV ==== 
 
    |psi|^2 = 0.003
==== e(  20) =     5.61107 eV ==== 
 
    |psi|^2 = 0.004
==== e(  21) =     5.87816 eV ==== 
     psi = 0.002*[#   9]+0.002*[#  13]+0.002*[#  17]+0.002*[#   6]+0.002*[#  21]
          +0.002*[#  26]+0.001*[#   2]+0.001*[#  30]
    |psi|^2 = 0.016
==== e(  22) =     6.78187 eV ==== 
     psi = 0.002*[#   2]+0.002*[#   6]+0.002*[#  26]+0.002*[#  30]
    |psi|^2 = 0.013
==== e(  23) =     7.22666 eV ==== 
     psi = 0.001*[#  10]+0.001*[#  14]+0.001*[#  22]+0.001*[#  18]
    |psi|^2 = 0.011
==== e(  24) =     8.49171 eV ==== 
     psi = 0.004*[#   6]+0.004*[#  26]+0.004*[#   2]+0.004*[#  30]+0.001*[#  10]
          +0.001*[#  14]+0.001*[#  18]+0.001*[#  22]
    |psi|^2 = 0.023
==== e(  25) =     8.90039 eV ==== 
     psi = 0.001*[#  10]+0.001*[#  14]+0.001*[#  18]+0.001*[#  22]
    |psi|^2 = 0.008
==== e(  26) =     9.19368 eV ==== 
     psi = 0.096*[#  11]+0.096*[#  12]+0.096*[#  15]+0.096*[#  16]+0.084*[#   7]
          +0.084*[#   8]+0.083*[#   3]+0.083*[#   4]+0.049*[#  19]+0.049*[#  20]
          +0.049*[#  23]+0.049*[#  24]+0.009*[#  27]+0.009*[#  28]+0.009*[#  31]
          +0.009*[#  32]
    |psi|^2 = 0.950
==== e(  27) =     9.19368 eV ==== 
     psi = 0.096*[#  11]+0.096*[#  12]+0.096*[#  15]+0.096*[#  16]+0.084*[#   7]
          +0.084*[#   8]+0.083*[#   3]+0.083*[#   4]+0.049*[#  19]+0.049*[#  20]
          +0.049*[#  23]+0.049*[#  24]+0.009*[#  27]+0.009*[#  28]+0.009*[#  31]
          +0.009*[#  32]
    |psi|^2 = 0.950
==== e(  28) =     9.20911 eV ==== 
     psi = 0.094*[#   3]+0.094*[#   4]+0.093*[#   7]+0.093*[#   8]+0.092*[#  23]
          +0.092*[#  24]+0.091*[#  19]+0.091*[#  20]+0.053*[#  27]+0.053*[#  28]
          +0.052*[#  31]+0.052*[#  32]
    |psi|^2 = 0.950
==== e(  29) =     9.20911 eV ==== 
     psi = 0.094*[#   3]+0.094*[#   4]+0.093*[#   7]+0.093*[#   8]+0.092*[#  23]
          +0.092*[#  24]+0.091*[#  19]+0.091*[#  20]+0.053*[#  27]+0.053*[#  28]
          +0.052*[#  31]+0.052*[#  32]
    |psi|^2 = 0.950
==== e(  30) =     9.22829 eV ==== 
     psi = 0.096*[#  15]+0.096*[#  16]+0.096*[#  11]+0.096*[#  12]+0.089*[#  31]
          +0.089*[#  32]+0.089*[#  27]+0.089*[#  28]+0.053*[#   3]+0.053*[#   4]
          +0.053*[#   7]+0.053*[#   8]
    |psi|^2 = 0.950

Lowdin Charges: 

     Atom #   1: total charge =   3.9632, s =  0.9065, 
     Atom #   1: total charge =   3.9632, p =  3.0568, pz=  0.9930, px=  1.0319, py=  1.0319, 
     Atom #   2: total charge =   3.9524, s =  0.9072, 
     Atom #   2: total charge =   3.9524, p =  3.0452, pz=  0.9793, px=  1.0329, py=  1.0329, 
     Atom #   3: total charge =   3.9626, s =  0.9071, 
     Atom #   3: total charge =   3.9626, p =  3.0555, pz=  0.9896, px=  1.0330, py=  1.0330, 
     Atom #   4: total charge =   3.9627, s =  0.9071, 
     Atom #   4: total charge =   3.9627, p =  3.0556, pz=  0.9896, px=  1.0330, py=  1.0330, 
     Atom #   5: total charge =   3.9628, s =  0.9071, 
     Atom #   5: total charge =   3.9628, p =  3.0557, pz=  0.9897, px=  1.0330, py=  1.0330, 
     Atom #   6: total charge =   3.9628, s =  0.9071, 
     Atom #   6: total charge =   3.9628, p =  3.0557, pz=  0.9897, px=  1.0330, py=  1.0330, 
     Atom #   7: total charge =   3.9514, s =  0.9072, 
     Atom #   7: total charge =   3.9514, p =  3.0442, pz=  0.9784, px=  1.0329, py=  1.0329, 
     Atom #   8: total charge =   3.9605, s =  0.9065, 
     Atom #   8: total charge =   3.9605, p =  3.0540, pz=  0.9900, px=  1.0320, py=  1.0320, 
     Spilling Parameter:   0.0100
 
     PROJWFC      :     26.04s CPU   1m27.10s WALL

 
   This run was terminated on:  14:28: 2   1Sep2025            

=------------------------------------------------------------------------------=
   JOB DONE.
=------------------------------------------------------------------------------=
