
     Program PWSCF v.6.8 starts on  1Sep2025 at 14:20:33 

     This program is part of the open-source Quantum ESPRESSO suite
     for quantum simulation of materials; please cite
         "P. Giannozzi et al., J. Phys.:Condens. Matter 21 395502 (2009);
         "P. Giannozzi et al., J. Phys.:Condens. Matter 29 465901 (2017);
         "P. Giannozzi et al., J. Chem. Phys. 152 154105 (2020);
          URL http://www.quantum-espresso.org", 
     in publications or presentations arising from this work. More details at
     http://www.quantum-espresso.org/quote

     Parallel version (MPI), running on     8 processors

     MPI processes distributed on     1 nodes
     R & G space division:  proc/nbgrp/npool/nimage =       8
     226074 MiB available memory on the printing compute node when the environment starts
 
     Reading input from pw.vdw-df3-opt1.scf.in

     Current dimensions of program PWSCF are:
     Max number of different atomic species (ntypx) = 10
     Max number of k-points (npk) =  40000
     Max angular momentum in pseudopotentials (lmaxx) =  4
     file C.pbe-n-kjpaw_psl.1.0.0.UPF: wavefunction(s)  2S 2P renormalized

     Subspace diagonalization in iterative solution of the eigenvalue problem:
     a serial algorithm will be used

 
     Parallelization info
     --------------------
     sticks:   dense  smooth     PW     G-vecs:    dense   smooth      PW
     Min         148      59     18                50540    12771    2138
     Max         149      60     19                50571    12814    2163
     Sum        1189     475    151               404453   102305   17211
 
     Using Slab Decomposition
 


     bravais-lattice index     =            4
     lattice parameter (alat)  =       4.6477  a.u.
     unit-cell volume          =    1059.0559 (a.u.)^3
     number of atoms/cell      =            8
     number of atomic types    =            1
     number of electrons       =        32.00
     number of Kohn-Sham states=           20
     kinetic-energy cutoff     =      80.0000  Ry
     charge density cutoff     =     800.0000  Ry
     scf convergence threshold =      1.0E-06
     mixing beta               =       0.7000
     number of iterations used =            8  plain     mixing
     Exchange-correlation= SLA  PW   PBX  PBC
                           (   1   4   3   4   0   0   0)

     celldm(1)=   4.647693  celldm(2)=   0.000000  celldm(3)=  12.180802
     celldm(4)=   0.000000  celldm(5)=   0.000000  celldm(6)=   0.000000

     crystal axes: (cart. coord. in units of alat)
               a(1) = (   1.000000   0.000000   0.000000 )  
               a(2) = (  -0.500000   0.866025   0.000000 )  
               a(3) = (   0.000000   0.000000  12.180802 )  

     reciprocal axes: (cart. coord. in units 2 pi/alat)
               b(1) = (  1.000000  0.577350  0.000000 )  
               b(2) = (  0.000000  1.154701  0.000000 )  
               b(3) = (  0.000000  0.000000  0.082096 )  


     PseudoPot. # 1 for C  read from file:
     ./C.pbe-n-kjpaw_psl.1.0.0.UPF
     MD5 check sum: 388cf89c7f26f69bd8d529ab88d70d14
     Pseudo is Projector augmented-wave + core cor, Zval =  4.0
     Generated using &quot;atomic&quot; code by A. Dal Corso  v.6.3
     Shape of augmentation charge: PSQ
     Using radial grid of 1073 points,  4 beta functions with: 
                l(1) =   0
                l(2) =   0
                l(3) =   1
                l(4) =   1
     Q(r) pseudized with 0 coefficients 


     atomic species   valence    mass     pseudopotential
        C              4.00    12.01070     C ( 1.00)

      6 Sym. Ops. (no inversion) found



   Cartesian axes

     site n.     atom                  positions (alat units)
         1           C   tau(   1) = (   0.0000000   0.0000000   3.9460061  )
         2           C   tau(   2) = (   0.5000000   0.2886751   3.9464105  )
         3           C   tau(   3) = (   0.5000000   0.2886751   5.2929145  )
         4           C   tau(   4) = (  -0.0000000   0.5773502   5.2937338  )
         5           C   tau(   5) = (  -0.0000000   0.5773503   6.6387733  )
         6           C   tau(   6) = (   0.0000000   0.0000000   6.6396004  )
         7           C   tau(   7) = (   0.0000000   0.0000000   7.9819632  )
         8           C   tau(   8) = (   0.5000000   0.2886751   7.9823761  )

     number of k points=    19  Methfessel-Paxton smearing, width (Ry)=  0.0200
                       cart. coord. in units 2pi/alat
        k(    1) = (   0.0000000   0.0000000   0.0000000), wk =   0.0138889
        k(    2) = (   0.0000000   0.0962250   0.0000000), wk =   0.0833333
        k(    3) = (   0.0000000   0.1924501   0.0000000), wk =   0.0833333
        k(    4) = (   0.0000000   0.2886751   0.0000000), wk =   0.0833333
        k(    5) = (   0.0000000   0.3849002   0.0000000), wk =   0.0833333
        k(    6) = (   0.0000000   0.4811252   0.0000000), wk =   0.0833333
        k(    7) = (   0.0000000  -0.5773503   0.0000000), wk =   0.0416667
        k(    8) = (   0.0833333   0.1443376   0.0000000), wk =   0.0833333
        k(    9) = (   0.0833333   0.2405626   0.0000000), wk =   0.1666667
        k(   10) = (   0.0833333   0.3367877   0.0000000), wk =   0.1666667
        k(   11) = (   0.0833333   0.4330127   0.0000000), wk =   0.1666667
        k(   12) = (   0.0833333   0.5292377   0.0000000), wk =   0.1666667
        k(   13) = (   0.1666667   0.2886751   0.0000000), wk =   0.0833333
        k(   14) = (   0.1666667   0.3849002   0.0000000), wk =   0.1666667
        k(   15) = (   0.1666667   0.4811252   0.0000000), wk =   0.1666667
        k(   16) = (   0.1666667   0.5773503   0.0000000), wk =   0.0833333
        k(   17) = (   0.2500000   0.4330127   0.0000000), wk =   0.0833333
        k(   18) = (   0.2500000   0.5292377   0.0000000), wk =   0.1666667
        k(   19) = (   0.3333333   0.5773503   0.0000000), wk =   0.0277778

     Dense  grid:   404453 G-vectors     FFT dimensions: (  45,  45, 512)

     Smooth grid:   102305 G-vectors     FFT dimensions: (  27,  27, 324)

     Estimated max dynamical RAM per process >      80.92 MB

     Estimated total dynamical RAM >     647.40 MB

     Initial potential from superposition of free atoms

     starting charge   31.99967, renormalised to   32.00000

     negative rho (up, down):  1.684E-05 0.000E+00
     Starting wfcs are   32 randomized atomic wfcs
     Checking if some PAW data can be deallocated... 

     total cpu time spent up to now is        1.4 secs

     Self-consistent Calculation

     iteration #  1     ecut=    80.00 Ry     beta= 0.70
     Davidson diagonalization with overlap
     ethr =  1.00E-02,  avg # of iterations =  2.1

     negative rho (up, down):  1.136E-05 0.000E+00

     total cpu time spent up to now is        2.5 secs

     total energy              =    -147.46037108 Ry
     estimated scf accuracy    <       0.71107416 Ry

     iteration #  2     ecut=    80.00 Ry     beta= 0.70
     Davidson diagonalization with overlap
     ethr =  2.22E-03,  avg # of iterations =  3.0

     negative rho (up, down):  1.605E-05 0.000E+00

     total cpu time spent up to now is        3.4 secs

     total energy              =    -147.54100352 Ry
     estimated scf accuracy    <       0.01067585 Ry

     iteration #  3     ecut=    80.00 Ry     beta= 0.70
     Davidson diagonalization with overlap
     ethr =  3.34E-05,  avg # of iterations =  6.0

     negative rho (up, down):  1.707E-05 0.000E+00

     total cpu time spent up to now is        4.8 secs

     total energy              =    -147.54058989 Ry
     estimated scf accuracy    <       0.00915829 Ry

     iteration #  4     ecut=    80.00 Ry     beta= 0.70
     Davidson diagonalization with overlap
     c_bands:  1 eigenvalues not converged
     ethr =  2.86E-05,  avg # of iterations =  6.7

     negative rho (up, down):  1.846E-05 0.000E+00

     total cpu time spent up to now is        5.9 secs

     total energy              =    -147.54266623 Ry
     estimated scf accuracy    <       0.00751375 Ry

     iteration #  5     ecut=    80.00 Ry     beta= 0.70
     Davidson diagonalization with overlap
     ethr =  2.35E-05,  avg # of iterations =  4.4

     negative rho (up, down):  1.882E-05 0.000E+00

     total cpu time spent up to now is        6.9 secs

     total energy              =    -147.54319874 Ry
     estimated scf accuracy    <       0.00647578 Ry

     iteration #  6     ecut=    80.00 Ry     beta= 0.70
     Davidson diagonalization with overlap
     ethr =  2.02E-05,  avg # of iterations =  3.1

     negative rho (up, down):  1.898E-05 0.000E+00

     total cpu time spent up to now is        7.8 secs

     total energy              =    -147.54387895 Ry
     estimated scf accuracy    <       0.00035180 Ry

     iteration #  7     ecut=    80.00 Ry     beta= 0.70
     Davidson diagonalization with overlap
     c_bands:  1 eigenvalues not converged
     ethr =  1.10E-06,  avg # of iterations =  4.9

     negative rho (up, down):  1.913E-05 0.000E+00

     total cpu time spent up to now is        8.9 secs

     total energy              =    -147.54392521 Ry
     estimated scf accuracy    <       0.00000655 Ry

     iteration #  8     ecut=    80.00 Ry     beta= 0.70
     Davidson diagonalization with overlap
     ethr =  2.05E-08,  avg # of iterations =  2.7

     negative rho (up, down):  1.917E-05 0.000E+00

     total cpu time spent up to now is        9.9 secs

     total energy              =    -147.54392742 Ry
     estimated scf accuracy    <       0.00000180 Ry

     iteration #  9     ecut=    80.00 Ry     beta= 0.70
     Davidson diagonalization with overlap
     ethr =  5.62E-09,  avg # of iterations =  2.0

     negative rho (up, down):  1.921E-05 0.000E+00

     total cpu time spent up to now is       10.8 secs

     End of self-consistent calculation

          k = 0.0000 0.0000 0.0000 ( 12941 PWs)   bands (ev):

   -18.8944 -18.8124 -18.7089 -18.6250  -7.6478  -7.1726  -6.5309  -5.9563
    -2.2185  -2.2185  -2.2141  -2.2141  -2.2073  -2.2073  -2.2013  -2.2013
     4.3110   4.3918   4.9725   5.6121

          k = 0.0000 0.0962 0.0000 ( 12933 PWs)   bands (ev):

   -18.7283 -18.6471 -18.5446 -18.4616  -7.4461  -6.9736  -6.3360  -5.7655
    -2.8788  -2.8700  -2.8580  -2.8478  -2.5645  -2.5573  -2.5472  -2.5384
     4.5338   4.6156   5.2000   5.8382

          k = 0.0000 0.1925 0.0000 ( 12861 PWs)   bands (ev):

   -18.2319 -18.1530 -18.0536 -17.9732  -6.8456  -6.3817  -5.7568  -5.1996
    -4.5380  -4.5205  -4.4978  -4.4792  -3.3694  -3.3588  -3.3444  -3.3323
     5.2014   5.2859   5.8823   6.5162

          k = 0.0000 0.2887 0.0000 ( 12795 PWs)   bands (ev):

   -17.4109 -17.3360 -17.2416 -17.1653  -6.6628  -6.6355  -6.6008  -6.5727
    -5.8618  -5.4144  -4.8138  -4.2814  -4.2600  -4.2471  -4.2302  -4.2160
     6.3073   6.3940   7.0174   7.6302

          k = 0.0000 0.3849 0.0000 ( 12780 PWs)   bands (ev):

   -16.2775 -16.2080 -16.1205 -16.0499  -8.8930  -8.8561  -8.8096  -8.7720
    -5.0012  -4.9871  -4.9686  -4.9533  -4.5359  -4.1178  -3.5620  -3.0761
     5.3774   5.6108   5.9123   6.1694

          k = 0.0000 0.4811 0.0000 ( 12734 PWs)   bands (ev):

   -14.8615 -14.7993 -14.7213 -14.6584 -11.0181 -10.9732 -10.9167 -10.8711
    -5.4787  -5.4640  -5.4448  -5.4288  -2.9916  -2.6397  -2.1870  -1.8082
     3.2009   3.4571   3.7829   4.0725

          k = 0.0000-0.5774 0.0000 ( 12722 PWs)   bands (ev):

   -13.5351 -13.5056 -13.4664 -13.4332 -12.5045 -12.4762 -12.4466 -12.4278
    -5.6426  -5.6277  -5.6083  -5.5921  -1.8909  -1.7254  -1.4851  -1.2618
     2.2168   2.4722   2.7134   2.8236

          k = 0.0833 0.1443 0.0000 ( 12891 PWs)   bands (ev):

   -18.3971 -18.3174 -18.2170 -18.1357  -7.0449  -6.5781  -5.9488  -5.3870
    -3.9163  -3.9079  -3.8964  -3.8865  -3.2459  -3.2396  -3.2311  -3.2240
     4.9793   5.0629   5.6550   6.2907

          k = 0.0833 0.2406 0.0000 ( 12820 PWs)   bands (ev):

   -17.7384 -17.6619 -17.5655 -17.4876  -6.2522  -5.7975  -5.6502  -5.6315
    -5.6076  -5.5882  -5.1863  -4.6430  -4.2613  -4.2496  -4.2339  -4.2208
     5.8679   5.9549   6.5646   7.1941

          k = 0.0833 0.3368 0.0000 ( 12786 PWs)   bands (ev):

   -16.7611 -16.6893 -16.5988 -16.5258  -7.7531  -7.7226  -7.6842  -7.6531
    -5.1609  -5.1450  -5.1241  -5.1069  -5.0921  -4.6597  -4.0816  -3.5723
     6.4797   6.6589   6.9007   7.1002

          k = 0.0833 0.4330 0.0000 ( 12766 PWs)   bands (ev):

   -15.4837 -15.4181 -15.3356 -15.2691  -9.9034  -9.8631  -9.8125  -9.7717
    -5.8032  -5.7853  -5.7621  -5.7431  -3.6328  -3.2420  -2.7278  -2.2851
     4.1769   4.4109   4.7158   4.9784

          k = 0.0833 0.5292 0.0000 ( 12766 PWs)   bands (ev):

   -13.9761 -13.9212 -13.8526 -13.7976 -11.8646 -11.8204 -11.7644 -11.7189
    -6.1351  -6.1164  -6.0923  -6.0725  -2.1261  -1.8532  -1.5146  -1.2376
     2.4672   2.6909   2.9393   3.1697

          k = 0.1667 0.2887 0.0000 ( 12803 PWs)   bands (ev):

   -16.9234 -16.8508 -16.7593 -16.6855  -6.9788  -6.9639  -6.9447  -6.9290
    -5.6326  -5.6212  -5.6072  -5.5965  -5.2800  -4.8428  -4.2577  -3.7410
     6.9586   7.0350   7.0649   7.1549

          k = 0.1667 0.3849 0.0000 ( 12803 PWs)   bands (ev):

   -15.8009 -15.7336 -15.6491 -15.5810  -8.7376  -8.7086  -8.6722  -8.6430
    -6.7100  -6.6902  -6.6650  -6.6443  -3.9684  -3.5612  -3.0210  -2.5504
     4.9995   5.1649   5.3788   5.5532

          k = 0.1667 0.4811 0.0000 ( 12771 PWs)   bands (ev):

   -14.4047 -14.3449 -14.2699 -14.2095 -10.6796 -10.6389 -10.5877 -10.5464
    -7.2968  -7.2719  -7.2401  -7.2143  -2.4280  -2.0827  -1.6372  -1.2632
     3.0414   3.2223   3.4750   3.6996

          k = 0.1667 0.5774 0.0000 ( 12758 PWs)   bands (ev):

   -13.1103 -13.0820 -13.0444 -13.0126 -12.0961 -12.0709 -12.0448 -12.0285
    -7.4844  -7.4582  -7.4250  -7.3980  -1.2861  -1.1254  -0.8892  -0.6670
     2.1352   2.2941   2.4179   2.4378

          k = 0.2500 0.4330 0.0000 ( 12825 PWs)   bands (ev):

   -14.5554 -14.4945 -14.4181 -14.3566  -9.7615  -9.7406  -9.7140  -9.6924
    -8.1993  -8.1823  -8.1626  -8.1482  -2.5464  -2.1812  -1.7032  -1.2941
     3.3838   3.5454   3.7479   3.9131

          k = 0.2500 0.5292 0.0000 ( 12779 PWs)   bands (ev):

   -13.1058 -13.0556 -12.9929 -12.9427 -11.2136 -11.1799 -11.1372 -11.1026
    -8.9277  -8.9014  -8.8679  -8.8406  -1.0043  -0.7337  -0.3933  -0.1111
     1.9149   2.0321   2.2153   2.3862

          k = 0.3333 0.5774 0.0000 ( 12780 PWs)   bands (ev):

   -11.8531 -11.8521 -11.8511 -11.7968 -11.7952 -11.7465 -11.7460 -11.7452
    -9.7944  -9.7941  -9.7933  -9.7927   0.4436   0.4492   0.4564   0.8169
     0.8188   1.1688   1.1808   1.1864

     the Fermi energy is     0.8182 ev

!    total energy              =    -147.54392765 Ry

     total all-electron energy =      -609.656704 Ry
     estimated scf accuracy    <       0.00000028 Ry
     smearing contrib. (-TS)   =       0.00004539 Ry
     internal energy E=F+TS    =    -147.54397304 Ry

     The total energy is F=E-TS. E is the sum of the following terms:
     one-electron contribution =   -2125.57382654 Ry
     hartree contribution      =    1072.28288473 Ry
     xc contribution           =     -37.16862420 Ry
     ewald contribution        =     992.25426182 Ry
     one-center paw contrib.   =     -49.33866885 Ry

     convergence has been achieved in   9 iterations

     Writing output data file ./vdw-df3-opt1.save/
 
     init_run     :      0.83s CPU      0.92s WALL (       1 calls)
     electrons    :      9.20s CPU      9.85s WALL (       1 calls)

     Called by init_run:
     wfcinit      :      0.38s CPU      0.39s WALL (       1 calls)
     potinit      :      0.16s CPU      0.18s WALL (       1 calls)
     hinit0       :      0.19s CPU      0.22s WALL (       1 calls)

     Called by electrons:
     c_bands      :      6.61s CPU      6.74s WALL (       9 calls)
     sum_band     :      1.45s CPU      1.49s WALL (       9 calls)
     v_of_rho     :      0.58s CPU      0.61s WALL (      10 calls)
     newd         :      0.29s CPU      0.31s WALL (      10 calls)
     PAW_pot      :      0.24s CPU      0.25s WALL (      10 calls)
     mix_rho      :      0.07s CPU      0.07s WALL (       9 calls)

     Called by c_bands:
     init_us_2    :      0.16s CPU      0.17s WALL (     361 calls)
     cegterg      :      6.10s CPU      6.21s WALL (     171 calls)

     Called by *egterg:
     cdiaghg      :      0.43s CPU      0.43s WALL (     835 calls)
     h_psi        :      4.82s CPU      4.91s WALL (     854 calls)
     s_psi        :      0.25s CPU      0.26s WALL (     854 calls)
     g_psi        :      0.03s CPU      0.03s WALL (     664 calls)

     Called by h_psi:
     h_psi:calbec :      0.32s CPU      0.33s WALL (     854 calls)
     vloc_psi     :      4.14s CPU      4.22s WALL (     854 calls)
     add_vuspsi   :      0.31s CPU      0.32s WALL (     854 calls)

     General routines
     calbec       :      0.40s CPU      0.41s WALL (    1025 calls)
     fft          :      0.38s CPU      0.43s WALL (     128 calls)
     ffts         :      0.01s CPU      0.01s WALL (      19 calls)
     fftw         :      4.25s CPU      4.33s WALL (   22732 calls)
     interpolate  :      0.02s CPU      0.03s WALL (      10 calls)
 
     Parallel routines
 
     PWSCF        :     10.17s CPU     15.11s WALL

 
   This run was terminated on:  14:20:48   1Sep2025            

=------------------------------------------------------------------------------=
   JOB DONE.
=------------------------------------------------------------------------------=
