
     Program PWSCF v.6.8 starts on  8May2024 at 19:26:45 

     This program is part of the open-source Quantum ESPRESSO suite
     for quantum simulation of materials; please cite
         "P. Giannozzi et al., J. Phys.:Condens. Matter 21 395502 (2009);
         "P. Giannozzi et al., J. Phys.:Condens. Matter 29 465901 (2017);
         "P. Giannozzi et al., J. Chem. Phys. 152 154105 (2020);
          URL http://www.quantum-espresso.org", 
     in publications or presentations arising from this work. More details at
     http://www.quantum-espresso.org/quote

     Parallel version (MPI), running on    10 processors

     MPI processes distributed on     4 nodes
     R & G space division:  proc/nbgrp/npool/nimage =      10
     353479 MiB available memory on the printing compute node when the environment starts
 
     Reading input from pw.V.scf-2.in

     Current dimensions of program PWSCF are:
     Max number of different atomic species (ntypx) = 10
     Max number of k-points (npk) =  40000
     Max angular momentum in pseudopotentials (lmaxx) =  4
     file V.pbe-spn-rrkjus_psl.1.0.0.UPF: wavefunction(s)  3P 3D renormalized

     Subspace diagonalization in iterative solution of the eigenvalue problem:
     a serial algorithm will be used

 
     Parallelization info
     --------------------
     sticks:   dense  smooth     PW     G-vecs:    dense   smooth      PW
     Min         145      72     26                 3487     1221     258
     Max         146      73     27                 3489     1222     259
     Sum        1453     723    261                34881    12215    2587
 
     Using Slab Decomposition
 


     bravais-lattice index     =           -3
     lattice parameter (alat)  =       5.6708  a.u.
     unit-cell volume          =      91.1821 (a.u.)^3
     number of atoms/cell      =            1
     number of atomic types    =            1
     number of electrons       =        13.00
     number of Kohn-Sham states=           11
     kinetic-energy cutoff     =     100.0000  Ry
     charge density cutoff     =     800.0000  Ry
     scf convergence threshold =      1.0E-10
     mixing beta               =       0.7000
     number of iterations used =            8  plain     mixing
     Exchange-correlation= PBE
                           (   1   4   3   4   0   0   0)

     celldm(1)=   5.670829  celldm(2)=   0.000000  celldm(3)=   0.000000
     celldm(4)=   0.000000  celldm(5)=   0.000000  celldm(6)=   0.000000

     crystal axes: (cart. coord. in units of alat)
               a(1) = (  -0.500000   0.500000   0.500000 )  
               a(2) = (   0.500000  -0.500000   0.500000 )  
               a(3) = (   0.500000   0.500000  -0.500000 )  

     reciprocal axes: (cart. coord. in units 2 pi/alat)
               b(1) = (  0.000000  1.000000  1.000000 )  
               b(2) = (  1.000000  0.000000  1.000000 )  
               b(3) = (  1.000000  1.000000  0.000000 )  


     PseudoPot. # 1 for V  read from file:
     ./V.pbe-spn-rrkjus_psl.1.0.0.UPF
     MD5 check sum: 7a413276fb094ad5d17d62d4fc8fb63f
     Pseudo is Ultrasoft + core correction, Zval = 13.0
     Generated using &quot;atomic&quot; code by A. Dal Corso  v.6.3
     Using radial grid of 1181 points,  6 beta functions with: 
                l(1) =   0
                l(2) =   0
                l(3) =   1
                l(4) =   1
                l(5) =   2
                l(6) =   2
     Q(r) pseudized with 0 coefficients 


     atomic species   valence    mass     pseudopotential
        V             13.00    50.94150     V ( 1.00)

     48 Sym. Ops., with inversion, found



   Cartesian axes

     site n.     atom                  positions (alat units)
         1           V   tau(   1) = (   0.0000000   0.0000000   0.0000000  )

     number of k points=   195  Methfessel-Paxton smearing, width (Ry)=  0.0200

     Number of k-points >= 100: set verbosity='high' to print them.

     Dense  grid:    34881 G-vectors     FFT dimensions: (  45,  45,  45)

     Smooth grid:    12215 G-vectors     FFT dimensions: (  32,  32,  32)

     Estimated max dynamical RAM per process >      20.20 MB

     Estimated total dynamical RAM >     202.03 MB

     Check: negative core charge=   -0.000002

     The initial density is read from file :
     ./V.save/charge-density

     Starting wfcs are   10 randomized atomic wfcs +    1 random wfcs

     total cpu time spent up to now is        0.3 secs

     Self-consistent Calculation

     iteration #  1     ecut=   100.00 Ry     beta= 0.70
     Davidson diagonalization with overlap
     ethr =  1.00E-05,  avg # of iterations =  9.1

     Threshold (ethr) on eigenvalues was too large:
     Diagonalizing with lowered threshold

     Davidson diagonalization with overlap
     ethr =  7.20E-09,  avg # of iterations =  4.2

     total cpu time spent up to now is        2.0 secs

     total energy              =    -145.54381917 Ry
     estimated scf accuracy    <       0.00000086 Ry

     iteration #  2     ecut=   100.00 Ry     beta= 0.70
     Davidson diagonalization with overlap
     ethr =  6.63E-09,  avg # of iterations =  2.8

     total cpu time spent up to now is        2.5 secs

     total energy              =    -145.54381937 Ry
     estimated scf accuracy    <       0.00000072 Ry

     iteration #  3     ecut=   100.00 Ry     beta= 0.70
     Davidson diagonalization with overlap
     ethr =  5.56E-09,  avg # of iterations =  1.9

     total cpu time spent up to now is        3.0 secs

     total energy              =    -145.54381952 Ry
     estimated scf accuracy    <          2.8E-09 Ry

     iteration #  4     ecut=   100.00 Ry     beta= 0.70
     Davidson diagonalization with overlap
     ethr =  2.12E-11,  avg # of iterations =  4.2

     total cpu time spent up to now is        3.6 secs

     total energy              =    -145.54381952 Ry
     estimated scf accuracy    <          2.3E-09 Ry

     iteration #  5     ecut=   100.00 Ry     beta= 0.70
     Davidson diagonalization with overlap
     ethr =  1.80E-11,  avg # of iterations =  1.9

     total cpu time spent up to now is        4.0 secs

     End of self-consistent calculation

     Number of k-points >= 100: set verbosity='high' to print the bands.

     the Fermi energy is    16.5784 ev

!    total energy              =    -145.54381952 Ry
     estimated scf accuracy    <          3.5E-12 Ry
     smearing contrib. (-TS)   =      -0.00020364 Ry
     internal energy E=F+TS    =    -145.54361589 Ry

     The total energy is F=E-TS. E is the sum of the following terms:
     one-electron contribution =     -45.93890781 Ry
     hartree contribution      =      29.18966316 Ry
     xc contribution           =     -20.33924889 Ry
     ewald contribution        =    -108.45512234 Ry

     convergence has been achieved in   5 iterations

     Forces acting on atoms (cartesian axes, Ry/au):

     atom    1 type  1   force =     0.00000000    0.00000000    0.00000000

     Total force =     0.000000     Total SCF correction =     0.000000


     Computing stress (Cartesian axis) and pressure

          total   stress  (Ry/bohr**3)                   (kbar)     P=       -0.43
  -0.00000293  -0.00000000  -0.00000000           -0.43       -0.00       -0.00
  -0.00000000  -0.00000293  -0.00000000           -0.00       -0.43       -0.00
  -0.00000000  -0.00000000  -0.00000293           -0.00       -0.00       -0.43


     Writing output data file ./V.save/
 
     init_run     :      0.19s CPU      0.23s WALL (       1 calls)
     electrons    :      3.52s CPU      3.73s WALL (       1 calls)
     forces       :      0.04s CPU      0.04s WALL (       1 calls)
     stress       :      0.13s CPU      0.13s WALL (       1 calls)

     Called by init_run:
     wfcinit      :      0.12s CPU      0.14s WALL (       1 calls)
     potinit      :      0.00s CPU      0.01s WALL (       1 calls)
     hinit0       :      0.04s CPU      0.06s WALL (       1 calls)

     Called by electrons:
     c_bands      :      3.02s CPU      3.20s WALL (       6 calls)
     sum_band     :      0.45s CPU      0.47s WALL (       6 calls)
     v_of_rho     :      0.02s CPU      0.02s WALL (       6 calls)
     newd         :      0.03s CPU      0.03s WALL (       6 calls)
     mix_rho      :      0.00s CPU      0.00s WALL (       6 calls)

     Called by c_bands:
     init_us_2    :      0.07s CPU      0.07s WALL (    2925 calls)
     cegterg      :      2.80s CPU      2.97s WALL (    1170 calls)

     Called by *egterg:
     cdiaghg      :      0.60s CPU      0.63s WALL (    5708 calls)
     h_psi        :      1.90s CPU      2.03s WALL (    6098 calls)
     s_psi        :      0.03s CPU      0.03s WALL (    6098 calls)
     g_psi        :      0.01s CPU      0.01s WALL (    4733 calls)

     Called by h_psi:
     h_psi:calbec :      0.11s CPU      0.12s WALL (    6098 calls)
     vloc_psi     :      1.73s CPU      1.84s WALL (    6098 calls)
     add_vuspsi   :      0.04s CPU      0.04s WALL (    6098 calls)

     General routines
     calbec       :      0.15s CPU      0.16s WALL (    8243 calls)
     fft          :      0.02s CPU      0.04s WALL (     102 calls)
     ffts         :      0.00s CPU      0.00s WALL (      12 calls)
     fftw         :      1.77s CPU      1.89s WALL (   94160 calls)
     interpolate  :      0.00s CPU      0.00s WALL (       6 calls)
 
     Parallel routines
 
     PWSCF        :      4.13s CPU      4.47s WALL

 
   This run was terminated on:  19:26:49   8May2024            

=------------------------------------------------------------------------------=
   JOB DONE.
=------------------------------------------------------------------------------=
