<?xml version="1.0" encoding="UTF-8"?>
<UPF version="2.0.1">
  <PP_INFO><![CDATA[
Generated using "atomic" code by A. Dal Corso  v.6.3
Author: ADC
Generation date: 12Apr2023
Pseudopotential type: PAW
Element: Nb
Functional:  SLA  PW   PBX  PBC
    Suggested minimum cutoff for wavefunctions:  47. Ry
    Suggested minimum cutoff for charge density: 266. Ry
    The Pseudo was generated with a Scalar-Relativistic Calculation
    Local Potential by smoothing AE potential with Bessel fncs, cutoff radius:   1.5000
    Pseudopotential contains additional information for GIPAW reconstruction.
    Valence configuration:
    nl pn  l   occ       Rcut    Rcut US       E pseu
    4S  1  0  2.00      1.100      1.150    -4.470845
    5S  2  0  2.00      1.100      1.150    -0.344216
    4P  2  1  6.00      1.100      1.500    -2.705887
    5P  3  1  0.00      1.100      1.500    -0.107294
    4D  3  2  3.00      1.300      1.700    -0.340652
    Generation configuration:
    4S  1  0  2.00      1.100      1.150    -4.470891
    5S  2  0  2.00      1.100      1.150    -0.344225
    4P  2  1  6.00      1.100      1.500    -2.705921
    5P  3  1  0.00      1.100      1.500    -0.107298
    4D  3  2  3.00      1.300      1.700    -0.340671
    4D  3  2  0.00      1.300      1.700     1.000000
    Pseudization used: troullier-martins
]]>
    <PP_INPUTFILE><![CDATA[
 &input
   title='Nb',
   zed=41.,
   rel=1,
   config='[Kr] 5s2 5p0 4d3',
   iswitch=3,
   dft='PBE'
 /
 &inputp
   lpaw=.true.,
   pseudotype=3,
   file_pseudopw='Nb.pbe-spn-kjpaw_psl.1.0.0.UPF',
   author='ADC',
   lloc=-1,
   rcloc=1.5,
   which_augfun='PSQ',
   rmatch_augfun_nc=.true.,
   nlcc=.true.,
   new_core_ps=.true.,
   rcore=1.2,
   tm=.true.
 /
6
4S  1  0  2.00  0.00  1.10  1.15  0.0
5S  2  0  2.00  0.00  1.10  1.15  0.0
4P  2  1  6.00  0.00  1.10  1.50  0.0
5P  3  1  0.00  0.00  1.10  1.50  0.0
4D  3  2  3.00  0.00  1.30  1.70  0.0
4D  3  2  0.00  1.00  1.30  1.70  0.0
]]></PP_INPUTFILE>
  </PP_INFO>
  <!--
 END OF HUMAN READABLE SECTION 
-->
  <PP_HEADER generated="Generated using &quot;atomic&quot; code by A. Dal Corso  v.6.3" author="ADC" date="12Apr2023" comment="" element="Nb" pseudo_type="PAW" relativistic="scalar" is_ultrasoft="true" is_paw="true" is_coulomb="false" has_so="false" has_wfc="true" has_gipaw="true" paw_as_gipaw="true" core_correction="true" functional=" SLA  PW   PBX  PBC" z_valence="1.300000000000e1" total_psenergy="-3.335608618191e2" wfc_cutoff="4.663043476453e1" rho_cutoff="2.658375894790e2" l_max="2" l_max_rho="4" l_local="-1" mesh_size="1227" number_of_wfc="5" number_of_proj="6"/>
  <PP_MESH dx="1.250000000000e-2" mesh="1227" xmin="-7.000000000000e0" rmax="1.000000000000e2" zmesh="4.100000000000e1">
    <PP_R>
      2.224102355011015e-5 2.252078118704933e-5 2.280405774186786e-5 2.309089747710376e-5
      2.338134521204927e-5 2.367544632975388e-5 2.397324678411557e-5 2.427479310706125e-5
      2.458013241581733e-5 2.488931242027206e-5 2.520238143043017e-5 2.551938836396142e-5
      2.584038275384415e-5 2.616541475610481e-5 2.649453515765507e-5 2.682779538422727e-5
      2.716524750840983e-5 2.750694425778372e-5 2.785293902316116e-5 2.820328586692824e-5
      2.855803953149206e-5 2.891725544783446e-5 2.928098974417319e-5 2.964929925473206e-5
      3.002224152862149e-5 3.039987483883047e-5 3.078225819133206e-5 3.116945133430304e-5
      3.156151476745971e-5 3.195850975151122e-5 3.236049831773150e-5 3.276754327765188e-5
      3.317970823287546e-5 3.359705758501505e-5 3.401965654575607e-5 3.444757114704589e-5
      3.488086825141157e-5 3.531961556240721e-5 3.576388163519276e-5 3.621373588724603e-5
      3.666924860920909e-5 3.713049097587150e-5 3.759753505729146e-5 3.807045383005688e-5
      3.854932118868822e-5 3.903421195718449e-5 3.952520190071480e-5 4.002236773745674e-5
      4.052578715058375e-5 4.103553880040344e-5 4.155170233664815e-5 4.207435841092054e-5
      4.260358868929560e-5 4.313947586508100e-5 4.368210367173829e-5 4.423155689596623e-5
      4.478792139094896e-5 4.535128408977076e-5 4.592173301899944e-5 4.649935731244089e-5
      4.708424722506608e-5 4.767649414711383e-5 4.827619061837066e-5 4.888343034263023e-5
      4.949830820233498e-5 5.012092027340143e-5 5.075136384023242e-5 5.138973741091791e-5
      5.203614073262703e-5 5.269067480719402e-5 5.335344190689964e-5 5.402454559045164e-5
      5.470409071916594e-5 5.539218347335138e-5 5.608893136890089e-5 5.679444327409059e-5
      5.750882942659104e-5 5.823220145069204e-5 5.896467237474399e-5 5.970635664881910e-5
      6.045737016259412e-5 6.121783026345850e-5 6.198785577485020e-5 6.276756701482195e-5
      6.355708581484144e-5 6.435653553882736e-5 6.516604110242563e-5 6.598572899252747e-5
      6.681572728703338e-5 6.765616567486558e-5 6.850717547623201e-5 6.936888966314555e-5
      7.024144288020105e-5 7.112497146561385e-5 7.201961347252308e-5 7.292550869056244e-5
      7.384279866770282e-5 7.477162673236935e-5 7.571213801583680e-5 7.666447947490683e-5
      7.762879991486992e-5 7.860525001275675e-5 7.959398234088166e-5 8.059515139068248e-5
      8.160891359686032e-5 8.263542736182224e-5 8.367485308043255e-5 8.472735316507446e-5
      8.579309207102753e-5 8.687223632216414e-5 8.796495453696904e-5 8.907141745488644e-5
      9.019179796299836e-5 9.132627112303854e-5 9.247501419874652e-5 9.363820668356498e-5
      9.481603032868611e-5 9.600866917145082e-5 9.721630956410463e-5 9.843914020291608e-5
      9.967735215766016e-5 1.009311389014741e-4 1.022006963410873e-4 1.034862228474327e-4
      1.047879192866424e-4 1.061059890514334e-4 1.074406380928880e-4 1.087920749526342e-4
      1.101605107954309e-4 1.115461594421628e-4 1.129492374032499e-4 1.143699639124783e-4
      1.158085609612556e-4 1.172652533332972e-4 1.187402686397503e-4 1.202338373547574e-4
      1.217461928514687e-4 1.232775714385076e-4 1.248282123968939e-4 1.263983580174323e-4
      1.279882536385703e-4 1.295981476847336e-4 1.312282917051420e-4 1.328789404131152e-4
      1.345503517258725e-4 1.362427868048317e-4 1.379565100964173e-4 1.396917893733801e-4
      1.414488957766376e-4 1.432281038576403e-4 1.450296916212706e-4 1.468539405692819e-4
      1.487011357442838e-4 1.505715657742805e-4 1.524655229177698e-4 1.543833031094085e-4
      1.563252060062532e-4 1.582915350345826e-4 1.602825974373076e-4 1.622987043219798e-4
      1.643401707094016e-4 1.664073155828494e-4 1.685004619379154e-4 1.706199368329759e-4
      1.727660714402957e-4 1.749392010977731e-4 1.771396653613388e-4 1.793678080580106e-4
      1.816239773396180e-4 1.839085257372018e-4 1.862218102160966e-4 1.885641922317090e-4
      1.909360377859945e-4 1.933377174846462e-4 1.957696065950039e-4 1.982320851046881e-4
      2.007255377809764e-4 2.032503542309222e-4 2.058069289622324e-4 2.083956614449109e-4
      2.110169561736740e-4 2.136712227311568e-4 2.163588758519087e-4 2.190803354871979e-4
      2.218360268706299e-4 2.246263805845888e-4 2.274518326275202e-4 2.303128244820539e-4
      2.332098031839879e-4 2.361432213921388e-4 2.391135374590689e-4 2.421212155027076e-4
      2.451667254788680e-4 2.482505432546797e-4 2.513731506829451e-4 2.545350356774270e-4
      2.577366922890891e-4 2.609786207832909e-4 2.642613277179549e-4 2.675853260227192e-4
      2.709511350790807e-4 2.743592808015528e-4 2.778102957198385e-4 2.813047190620395e-4
      2.848430968389135e-4 2.884259819291858e-4 2.920539341659420e-4 2.957275204241000e-4
      2.994473147089862e-4 3.032138982460266e-4 3.070278595715609e-4 3.108897946248065e-4
      3.148003068409725e-4 3.187600072455484e-4 3.227695145497790e-4 3.268294552473373e-4
      3.309404637122179e-4 3.351031822978571e-4 3.393182614375029e-4 3.435863597458471e-4
      3.479081441219330e-4 3.522842898533629e-4 3.567154807218103e-4 3.612024091098634e-4
      3.657457761092126e-4 3.703462916301938e-4 3.750046745127179e-4 3.797216526385875e-4
      3.844979630452314e-4 3.893343520408688e-4 3.942315753211189e-4 3.991903980870836e-4
      4.042115951649087e-4 4.092959511268527e-4 4.144442604138801e-4 4.196573274597899e-4
      4.249359668169149e-4 4.302810032833943e-4 4.356932720320496e-4 4.411736187408858e-4
      4.467228997252239e-4 4.523419820715094e-4 4.580317437727905e-4 4.637930738659087e-4
      4.696268725704130e-4 4.755340514292195e-4 4.815155334510434e-4 4.875722532546202e-4
      4.937051572147412e-4 4.999152036101282e-4 5.062033627731645e-4 5.125706172415130e-4
      5.190179619116384e-4 5.255464041942627e-4 5.321569641717750e-4 5.388506747576205e-4
      5.456285818576976e-4 5.524917445337798e-4 5.594412351689983e-4 5.664781396354043e-4
      5.736035574636367e-4 5.808186020147287e-4 5.881244006540701e-4 5.955220949275618e-4
      6.030128407399853e-4 6.105978085356134e-4 6.182781834810962e-4 6.260551656506447e-4
      6.339299702135451e-4 6.419038276240320e-4 6.499779838135485e-4 6.581537003854265e-4
      6.664322548120138e-4 6.748149406342824e-4 6.833030676639469e-4 6.918979621881245e-4
      7.006009671765716e-4 7.094134424915238e-4 7.183367651001777e-4 7.273723292898467e-4
      7.365215468858170e-4 7.457858474719535e-4 7.551666786140705e-4 7.646655060861192e-4
      7.742838140992184e-4 7.840231055335627e-4 7.938849021732544e-4 8.038707449440821e-4
      8.139821941542946e-4 8.242208297384037e-4 8.345882515040495e-4 8.450860793819762e-4
      8.557159536791474e-4 8.664795353350479e-4 8.773785061812115e-4 8.884145692040057e-4
      8.995894488107322e-4 9.109048910990639e-4 9.223626641298802e-4 9.339645582035283e-4
      9.457123861395612e-4 9.576079835599954e-4 9.696532091761298e-4 9.818499450789719e-4
      9.942000970333225e-4 1.006705594775550e-3 1.019368392315120e-3 1.032190468239910e-3
      1.045173826025370e-3 1.058320494347570e-3 1.071632527400181e-3 1.085112005215452e-3
      1.098761033989215e-3 1.112581746409985e-3 1.126576301992198e-3 1.140746887413634e-3
      1.155095716857096e-3 1.169625032356377e-3 1.184337104146585e-3 1.199234231018868e-3
      1.214318740679608e-3 1.229592990114131e-3 1.245059365954986e-3 1.260720284854864e-3
      1.276578193864204e-3 1.292635570813556e-3 1.308894924700735e-3 1.325358796082865e-3
      1.342029757473348e-3 1.358910413743815e-3 1.376003402531155e-3 1.393311394649641e-3
      1.410837094508255e-3 1.428583240533257e-3 1.446552605596066e-3 1.464747997446536e-3
      1.483172259151658e-3 1.501828269539811e-3 1.520718943650572e-3 1.539847233190204e-3
      1.559216126992868e-3 1.578828651487623e-3 1.598687871171326e-3 1.618796889087455e-3
      1.639158847310970e-3 1.659776927439273e-3 1.680654351089331e-3 1.701794380401065e-3
      1.723200318547064e-3 1.744875510248713e-3 1.766823342298816e-3 1.789047244090784e-3
      1.811550688154485e-3 1.834337190698840e-3 1.857410312161227e-3 1.880773657763822e-3
      1.904430878076906e-3 1.928385669589285e-3 1.952641775285868e-3 1.977202985232518e-3
      2.002073137168263e-3 2.027256117104940e-3 2.052755859934400e-3 2.078576350043338e-3
      2.104721621935866e-3 2.131195760863912e-3 2.158002903465544e-3 2.185147238411335e-3
      2.212633007058843e-3 2.240464504115339e-3 2.268646078308866e-3 2.297182133067724e-3
      2.326077127208528e-3 2.355335575632899e-3 2.384962050032928e-3 2.414961179605520e-3
      2.445337651775701e-3 2.476096212929050e-3 2.507241669153327e-3 2.538778886989430e-3
      2.570712794191813e-3 2.603048380498444e-3 2.635790698410471e-3 2.668944863981682e-3
      2.702516057617902e-3 2.736509524886433e-3 2.770930577335702e-3 2.805784593325181e-3
      2.841077018865781e-3 2.876813368470794e-3 2.912999226017552e-3 2.949640245619920e-3
      2.986742152511754e-3 3.024310743941494e-3 3.062351890077983e-3 3.100871534927697e-3
      3.139875697263518e-3 3.179370471565163e-3 3.219362028971470e-3 3.259856618244647e-3
      3.300860566746652e-3 3.342380281427865e-3 3.384422249828178e-3 3.426993041090687e-3
      3.470099306988139e-3 3.513747782962275e-3 3.557945289176279e-3 3.602698731580411e-3
      3.648015102991101e-3 3.693901484183577e-3 3.740365044998256e-3 3.787413045461050e-3
      3.835052836917749e-3 3.883291863182691e-3 3.932137661701876e-3 3.981597864730693e-3
      4.031680200526502e-3 4.082392494556160e-3 4.133742670718785e-3 4.185738752583874e-3
      4.238388864645003e-3 4.291701233589306e-3 4.345684189582890e-3 4.400346167572460e-3
      4.455695708603287e-3 4.511741461153763e-3 4.568492182486756e-3 4.625956740017934e-3
      4.684144112701322e-3 4.743063392432284e-3 4.802723785468148e-3 4.863134613866712e-3
      4.924305316942816e-3 4.986245452743271e-3 5.048964699540312e-3 5.112472857343850e-3
      5.176779849432759e-3 5.241895723905382e-3 5.307830655249585e-3 5.374594945932536e-3
      5.442199028010483e-3 5.510653464758802e-3 5.579968952322499e-3 5.650156321387535e-3
      5.721226538873116e-3 5.793190709645319e-3 5.866060078252248e-3 5.939846030680994e-3
      6.014560096136746e-3 6.090213948844237e-3 6.166819409871866e-3 6.244388448978783e-3
      6.322933186485162e-3 6.402465895166034e-3 6.482999002168945e-3 6.564545090955703e-3
      6.647116903268602e-3 6.730727341121298e-3 6.815389468814815e-3 6.901116514978854e-3
      6.987921874638783e-3 7.075819111308668e-3 7.164821959110559e-3 7.254944324920505e-3
      7.346200290541520e-3 7.438604114903885e-3 7.532170236293169e-3 7.626913274606193e-3
      7.722848033635449e-3 7.819989503382217e-3 7.918352862398774e-3 8.017953480160102e-3
      8.118806919465358e-3 8.220928938869621e-3 8.324335495146194e-3 8.429042745779867e-3
      8.535067051491597e-3 8.642424978794850e-3 8.751133302584190e-3 8.861209008756378e-3
      8.972669296864446e-3 9.085531582805196e-3 9.199813501540415e-3 9.315532909852418e-3
      9.432707889134184e-3 9.551356748214610e-3 9.671498026219339e-3 9.793150495467483e-3
      9.916333164404863e-3 1.004106528057412e-2 1.016736633362216e-2 1.029525605834550e-2
      1.042475443777382e-2 1.055588170629238e-2 1.068865835280365e-2 1.082310512392878e-2
      1.095924302724931e-2 1.109709333458960e-2 1.123667758534064e-2 1.137801758982558e-2
      1.152113543270768e-2 1.166605347644108e-2 1.181279436476494e-2 1.196138102624162e-2
      1.211183667783926e-2 1.226418482855953e-2 1.241844928311096e-2 1.257465414562840e-2
      1.273282382343942e-2 1.289298303087799e-2 1.305515679314611e-2 1.321937045022408e-2
      1.338564966082992e-2 1.355402040642858e-2 1.372450899529161e-2 1.389714206660788e-2
      1.407194659464602e-2 1.424894989296917e-2 1.442817961870282e-2 1.460966377685624e-2
      1.479343072469837e-2 1.497950917618873e-2 1.516792820646391e-2 1.535871725638074e-2
      1.555190613711643e-2 1.574752503482664e-2 1.594560451536213e-2 1.614617552904474e-2
      1.634926941550341e-2 1.655491790857109e-2 1.676315314124323e-2 1.697400765069859e-2
      1.718751438338326e-2 1.740370670015861e-2 1.762261838151397e-2 1.784428363284492e-2
      1.806873708979800e-2 1.829601382368249e-2 1.852614934695046e-2 1.875917961874564e-2
      1.899514105052207e-2 1.923407051173358e-2 1.947600533559457e-2 1.972098332491349e-2
      1.996904275799957e-2 2.022022239464391e-2 2.047456148217579e-2 2.073209976159509e-2
      2.099287747378191e-2 2.125693536578436e-2 2.152431469718526e-2 2.179505724654916e-2
      2.206920531795024e-2 2.234680174758239e-2 2.262788991045253e-2 2.291251372715795e-2
      2.320071767074912e-2 2.349254677367859e-2 2.378804663483740e-2 2.408726342668005e-2
      2.439024390243902e-2 2.469703540343012e-2 2.500768586644949e-2 2.532224383126404e-2
      2.564075844819573e-2 2.596327948580145e-2 2.628985733864956e-2 2.662054303519395e-2
      2.695538824574752e-2 2.729444529055564e-2 2.763776714797137e-2 2.798540746273348e-2
      2.833742055434838e-2 2.869386142557783e-2 2.905478577103315e-2 2.942024998587758e-2
      2.979031117463830e-2 3.016502716012891e-2 3.054445649248451e-2 3.092865845831025e-2
      3.131769308994492e-2 3.171162117484125e-2 3.211050426506395e-2 3.251440468690741e-2
      3.292338555063425e-2 3.333751076033650e-2 3.375684502392077e-2 3.418145386321887e-2
      3.461140362422580e-2 3.504676148746647e-2 3.548759547849272e-2 3.593397447851258e-2
      3.638596823515294e-2 3.684364737335788e-2 3.730708340642390e-2 3.777634874717398e-2
      3.825151671927242e-2 3.873266156868156e-2 3.921985847526302e-2 3.971318356452466e-2
      4.021271391951532e-2 4.071852759286934e-2 4.123070361900224e-2 4.174932202646014e-2
      4.227446385042430e-2 4.280621114537314e-2 4.334464699790338e-2 4.388985553971242e-2
      4.444192196074415e-2 4.500093252250003e-2 4.556697457151762e-2 4.614013655301878e-2
      4.672050802472919e-2 4.730817967087208e-2 4.790324331633776e-2 4.850579194103151e-2
      4.911591969440188e-2 4.973372191015160e-2 5.035929512113384e-2 5.099273707443554e-2
      5.163414674665060e-2 5.228362435934535e-2 5.294127139471812e-2 5.360719061145617e-2
      5.428148606079192e-2 5.496426310276118e-2 5.565562842266595e-2 5.635569004774402e-2
      5.706455736404859e-2 5.778234113354004e-2 5.850915351139264e-2 5.924510806351924e-2
      5.999031978431587e-2 6.074490511463005e-2 6.150898195995486e-2 6.228266970885187e-2
      6.306608925160601e-2 6.385936299911467e-2 6.466261490201484e-2 6.547597047005055e-2
      6.629955679168403e-2 6.713350255395384e-2 6.797793806258174e-2 6.883299526233413e-2
      6.969880775763819e-2 7.057551083345759e-2 7.146324147643181e-2 7.236213839627972e-2
      7.327234204747396e-2 7.419399465118697e-2 7.512724021751295e-2 7.607222456797063e-2
      7.702909535828705e-2 7.799800210147011e-2 7.897909619116983e-2 7.997253092533350e-2
      8.097846153015979e-2 8.199704518435198e-2 8.302844104367848e-2 8.407281026584091e-2
      8.513031603565468e-2 8.620112359054811e-2 8.728540024638001e-2 8.838331542358391e-2
      8.949504067364018e-2 9.062074970588057e-2 9.176061841463207e-2 9.291482490669909e-2
      9.408354952919446e-2 9.526697489771841e-2 9.646528592489213e-2 9.767866984925194e-2
      9.890731626450432e-2 1.001514171491515e-1 1.014111668964881e-1 1.026867623449746e-1
      1.039784028089957e-1 1.052862901100011e-1 1.066106286080428e-1 1.079516252337058e-1
      1.093094895204406e-1 1.106844336373050e-1 1.120766724221144e-1 1.134864234150114e-1
      1.149139068924572e-1 1.163593459016488e-1 1.178229662953728e-1 1.193049967672928e-1
      1.208056688876857e-1 1.223252171396235e-1 1.238638789556117e-1 1.254218947546900e-1
      1.269995079799964e-1 1.285969651368071e-1 1.302145158310532e-1 1.318524128083211e-1
      1.335109119933465e-1 1.351902725300006e-1 1.368907568217843e-1 1.386126305728280e-1
      1.403561628294081e-1 1.421216260219873e-1 1.439092960077809e-1 1.457194521138615e-1
      1.475523771808037e-1 1.494083576068777e-1 1.512876833928017e-1 1.531906481870528e-1
      1.551175493317519e-1 1.570686879091235e-1 1.590443687885393e-1 1.610449006741570e-1
      1.630705961531530e-1 1.651217717445676e-1 1.671987479487606e-1 1.693018492974887e-1
      1.714314044046171e-1 1.735877460174633e-1 1.757712110687919e-1 1.779821407294594e-1
      1.802208804617232e-1 1.824877800732216e-1 1.847831937716305e-1 1.871074802200104e-1
      1.894610025928482e-1 1.918441286328022e-1 1.942572307081654e-1 1.967006858710457e-1
      1.991748759162840e-1 2.016801874411091e-1 2.042170119055430e-1 2.067857456935703e-1
      2.093867901750706e-1 2.120205517685366e-1 2.146874420045759e-1 2.173878775902131e-1
      2.201222804740032e-1 2.228910779119592e-1 2.256947025343144e-1 2.285335924131204e-1
      2.314081911306958e-1 2.343189478489393e-1 2.372663173795095e-1 2.402507602548922e-1
      2.432727428003592e-1 2.463327372068306e-1 2.494312216046588e-1 2.525686801383340e-1
      2.557456030421358e-1 2.589624867167319e-1 2.622198338067403e-1 2.655181532792720e-1
      2.688579605034538e-1 2.722397773309601e-1 2.756641321775510e-1 2.791315601056371e-1
      2.826426029078879e-1 2.861978091918833e-1 2.897977344658389e-1 2.934429412254034e-1
      2.971339990415482e-1 3.008714846495675e-1 3.046559820391905e-1 3.084880825458347e-1
      3.123683849430010e-1 3.162974955358325e-1 3.202760282558544e-1 3.243046047568972e-1
      3.283838545122368e-1 3.325144149129455e-1 3.366969313674901e-1 3.409320574025767e-1
      3.452204547652636e-1 3.495627935263646e-1 3.539597521851445e-1 3.584120177753400e-1
      3.629202859725085e-1 3.674852612027266e-1 3.721076567526629e-1 3.767881948810250e-1
      3.815276069314188e-1 3.863266334466203e-1 3.911860242842848e-1 3.961065387341185e-1
      4.010889456365137e-1 4.061340235026865e-1 4.112425606363183e-1 4.164153552567283e-1
      4.216532156236016e-1 4.269569601632754e-1 4.323274175966255e-1 4.377654270685526e-1
      4.432718382790992e-1 4.488475116162213e-1 4.544933182902199e-1 4.602101404698752e-1
      4.659988714202846e-1 4.718604156424345e-1 4.777956890145370e-1 4.838056189351301e-1
      4.898911444679920e-1 4.960532164888690e-1 5.022927978340497e-1 5.086108634508156e-1
      5.150084005497714e-1 5.214864087591059e-1 5.280459002807824e-1 5.346879000486945e-1
      5.414134458888212e-1 5.482235886813811e-1 5.551193925250422e-1 5.621019349031854e-1
      5.691723068522615e-1 5.763316131322743e-1 5.835809723993939e-1 5.909215173807556e-1
      5.983543950514481e-1 6.058807668137280e-1 6.135018086784974e-1 6.212187114490511e-1
      6.290326809071479e-1 6.369449380014145e-1 6.449567190381171e-1 6.530692758743452e-1
      6.612838761136075e-1 6.696018033039048e-1 6.780243571382851e-1 6.865528536579184e-1
      6.951886254577394e-1 7.039330218946594e-1 7.127874092984133e-1 7.217531711850484e-1
      7.308317084730982e-1 7.400244397024868e-1 7.493328012561692e-1 7.587582475845771e-1
      7.683022514328773e-1 7.779663040710854e-1 7.877519155270908e-1 7.976606148225896e-1
      8.076939502120076e-1 8.178534894244137e-1 8.281408199084769e-1 8.385575490805177e-1
      8.491053045756598e-1 8.597857345021595e-1 8.706005076989246e-1 8.815513139962668e-1
      8.926398644799521e-1 9.038678917585511e-1 9.152371502341708e-1 9.267494163765805e-1
      9.384064890007838e-1 9.502101895480981e-1 9.621623623707453e-1 9.742648750200471e-1
      9.865196185382301e-1 9.989285077538977e-1 1.011493481581239e0 1.024216503322976e0
      1.037099560977141e0 1.050144667547706e0 1.063353861359110e0 1.076729206374763e0
      1.090272792519533e0 1.103986736006311e0 1.117873179666671e0 1.131934293285682e0
      1.146172273940960e0 1.160589346345944e0 1.175187763197532e0 1.189969805528060e0
      1.204937783061712e0 1.220094034575435e0 1.235440928264358e0 1.250980862111846e0
      1.266716264264183e0 1.282649593409962e0 1.298783339164285e0 1.315120022457746e0
      1.331662195930347e0 1.348412444330353e0 1.365373384918150e0 1.382547667875216e0
      1.399937976718201e0 1.417547028718244e0 1.435377575325548e0 1.453432402599292e0
      1.471714331642977e0 1.490226219045204e0 1.508970957326046e0 1.527951475388998e0
      1.547170738978618e0 1.566631751143950e0 1.586337552707732e0 1.606291222741554e0
      1.626495879046956e0 1.646954678642589e0 1.667670818257518e0 1.688647534830699e0
      1.709888106016777e0 1.731395850698218e0 1.753174129503880e0 1.775226345334140e0
      1.797555943892582e0 1.820166414224412e0 1.843061289261626e0 1.866244146375022e0
      1.889718607933195e0 1.913488341868516e0 1.937557062250276e0 1.961928529865007e0
      1.986606552804101e0 2.011594987058857e0 2.036897737122958e0 2.062518756602585e0
      2.088462048834162e0 2.114731667509876e0 2.141331717311096e0 2.168266354549715e0
      2.195539787817605e0 2.223156278644206e0 2.251120142162387e0 2.279435747782725e0
      2.308107519876199e0 2.337139938465533e0 2.366537539925206e0 2.396304917690245e0
      2.426446722973999e0 2.456967665494857e0 2.487872514212187e0 2.519166098071484e0
      2.550853306758884e0 2.582939091465220e0 2.615428465659623e0 2.648326505872917e0
      2.681638352490820e0 2.715369210557130e0 2.749524350587057e0 2.784109109390708e0
      2.819128890907016e0 2.854589167048095e0 2.890495478554228e0 2.926853435859648e0
      2.963668719969145e0 3.000947083345769e0 3.038694350809645e0 3.076916420448102e0
      3.115619264537294e0 3.154808930475341e0 3.194491541727283e0 3.234673298781870e0
      3.275360480120379e0 3.316559443197686e0 3.358276625435578e0 3.400518545228663e0
      3.443291802962854e0 3.486603082046683e0 3.530459149955638e0 3.574866859289541e0
      3.619833148843332e0 3.665365044691244e0 3.711469661284625e0 3.758154202563632e0
      3.805425963082807e0 3.853292329150914e0 3.901760779985041e0 3.950838888879228e0
      4.000534324387854e0 4.050854851523807e0 4.101808332971840e0 4.153402730317101e0
      4.205646105289130e0 4.258546621021572e0 4.312112543327621e0 4.366352241991626e0
      4.421274192076862e0 4.476886975249756e0 4.533199281120837e0 4.590219908602451e0
      4.647957767283659e0 4.706421878822356e0 4.765621378354902e0 4.825565515923555e0
      4.886263657921752e0 4.947725288557680e0 5.009960011336180e0 5.072977550559283e0
      5.136787752845725e0 5.201400588669416e0 5.266826153917417e0 5.333074671467419e0
      5.400156492785053e0 5.468082099541397e0 5.536862105250686e0 5.606507256928753e0
      5.677028436772251e0 5.748436663858991e0 5.820743095869752e0 5.893959030831629e0
      5.968095908883424e0 6.043165314063178e0 6.119178976118160e0 6.196148772337739e0
      6.274086729409145e0 6.353005025296751e0 6.432915991144860e0 6.513832113204442e0
      6.595766034784219e0 6.678730558226111e0 6.762738646905706e0 6.847803427257793e0
      6.933938190827340e0 7.021156396346424e0 7.109471671837078e0 7.198897816740788e0
      7.289448804074648e0 7.381138782614631e0 7.473982079106453e0 7.567993200504059e0
      7.663186836236444e0 7.759577860502880e0 7.857181334596989e0 7.956012509260203e0
      8.056086827064608e0 8.157419924825977e0 8.260027636047013e0 8.363925993391327e0
      8.469131231188660e0 8.575659787971434e0 8.683528309043393e0 8.792753649080431e0
      8.903352874764119e0 9.015343267448518e0 9.128742325860296e0 9.243567768833062e0
      9.359837538075908e0 9.477569800976800e0 9.596782953441377e0 9.717495622767219e0
      9.839726670554516e0 9.963495195653184e0 1.008882053714704e1 1.021572227737572e1
      1.034422024499426e1 1.047433451807156e1 1.060608542722753e1 1.073949355880973e1
      1.087457975811019e1 1.101136513262233e1 1.114987105533924e1 1.129011916809316e1
      1.143213138493700e1 1.157592989556861e1 1.172153716879779e1 1.186897595605725e1
      1.201826929495748e1 1.216944051288639e1 1.232251323065438e1 1.247751136618498e1
      1.263445913825224e1 1.279338107026489e1 1.295430199409808e1 1.311724705397360e1
      1.328224171038852e1 1.344931174409363e1 1.361848326012161e1 1.378978269186598e1
      1.396323680521151e1 1.413887270271625e1 1.431671782784656e1 1.449679996926508e1
      1.467914726517274e1 1.486378820770557e1 1.505075164738643e1 1.524006679763319e1
      1.543176323932327e1 1.562587092541563e1 1.582242018563120e1 1.602144173119170e1
      1.622296665961858e1 1.642702645959194e1 1.663365301587062e1 1.684287861427450e1
      1.705473594672892e1 1.726925811637316e1 1.748647864273268e1 1.770643146695662e1
      1.792915095712132e1 1.815467191360017e1 1.838302957450150e1 1.861425962117443e1
      1.884839818378414e1 1.908548184695748e1 1.932554765549908e1 1.956863312017997e1
      1.981477622359863e1 2.006401542611567e1 2.031638967186363e1 2.057193839483179e1
      2.083070152502809e1 2.109271949471809e1 2.135803324474258e1 2.162668423091486e1
      2.189871443049801e1 2.217416634876420e1 2.245308302563612e1 2.273550804241191e1
      2.302148552857512e1 2.331106016868970e1 2.360427720938236e1 2.390118246641230e1
      2.420182233182991e1 2.450624378122590e1 2.481449438107100e1 2.512662229614863e1
      2.544267629708059e1 2.576270576794744e1 2.608676071400522e1 2.641489176949845e1
      2.674715020557216e1 2.708358793828305e1 2.742425753671124e1 2.776921223117466e1
      2.811850592154606e1 2.847219318567525e1 2.883032928791688e1 2.919297018776545e1
      2.956017254859947e1 2.993199374653480e1 3.030849187939014e1 3.068972577576480e1
      3.107575500423059e1 3.146663988263996e1 3.186244148755032e1 3.226322166376775e1
      3.266904303401022e1 3.307996900869240e1 3.349606379583396e1 3.391739241109184e1
      3.434402068791941e1 3.477601528785298e1 3.521344371092757e1 3.565637430622437e1
      3.610487628254991e1 3.655901971925054e1 3.701887557716227e1 3.748451570969835e1
      3.795601287407698e1 3.843344074268922e1 3.891687391461096e1 3.940638792725892e1
      3.990205926819334e1 4.040396538706989e1 4.091218470774058e1 4.142679664050834e1
      4.194788159453473e1 4.247552099040383e1 4.300979727284488e1 4.355079392361382e1
      4.409859547453813e1 4.465328752072469e1 4.521495673393411e1 4.578369087612383e1
      4.635957881316051e1 4.694271052870604e1 4.753317713827744e1 4.813107090348361e1
      4.873648524644198e1 4.934951476437515e1 4.997025524439263e1 5.059880367845740e1
      5.123525827854092e1 5.187971849196948e1 5.253228501696245e1 5.319305981836706e1
      5.386214614359051e1 5.453964853873219e1 5.522567286491992e1 5.592032631485021e1
      5.662371742953798e1 5.733595611527605e1 5.805715366080795e1 5.878742275471765e1
      5.952687750303660e1 6.027563344707379e1 6.103380758146891e1 6.180151837247278e1
      6.257888577645862e1 6.336603125866465e1 6.416307781217405e1 6.497014997713250e1
      6.578737386020755e1 6.661487715429385e1 6.745278915846440e1 6.830124079817472e1
      6.916036464571985e1 7.003029494094858e1 7.091116761223971e1 7.180312029774001e1
      7.270629236687142e1 7.362082494210739e1 7.454686092102316e1 7.548454499862475e1
      7.643402368995672e1 7.739544535299649e1 7.836896021183506e1 7.935472038014947e1
      8.035287988497187e1 8.136359469075533e1 8.238702272374475e1 8.342332389665261e1
      8.447266013364525e1 8.553519539564487e1 8.661109570594762e1 8.770052917616606e1
      8.880366603249655e1 8.992067864231691e1 9.105174154112037e1 9.219703145978565e1
      9.335672735219283e1 9.453101042318471e1 9.572006415687987e1 9.692407434534372e1
      9.814322911761741e1 9.937771896911464e1 1.006277367913865e2
      </PP_R>